53
Lattice="11.681404 0.0 0.0 0.0 8.26 0.0 0.0 0.0 37.300878" Properties=species:S:1:pos:R:3:move_mask:L:1 method=MACE-MP energy=-1706.30615234375 max_force=7198.248046875 pbc="T T T"
Ag      -0.00000001       1.94102187      14.28092353  F
Ag       4.38052650       4.00602187      15.74109903  F
Ag       1.46017549       4.00602187      15.74109903  F
Ag       2.92035099       1.94102187      14.28092353  F
Ag       2.92035099       1.94102187      17.20127453  F
Ag       1.46017549       4.00602187      18.66145004  F
Ag       4.38052650       4.00602187      18.66145004  F
Ag      -0.00000001       1.94102187      17.20127453  F
Ag       5.84070200       1.94102187      20.12162554  F
Ag       4.38052650       4.00602187      21.58180104  F
Ag       1.46017549       4.00602187      21.58180104  F
Ag       2.92035099       1.94102187      20.12162554  F
Ag      -0.00000001       6.07102187      14.28092353  F
Ag       4.38052650       8.13602187      15.74109903  F
Ag       1.46017549       8.13602187      15.74109903  F
Ag       2.92035099       6.07102187      14.28092353  F
Ag       2.92035099       6.07102187      17.20127453  F
Ag       1.46017549       8.13602187      18.66145004  F
Ag       4.38052650       8.13602187      18.66145004  F
Ag      -0.00000001       6.07102187      17.20127453  F
Ag       5.84070200       6.07102187      20.12162554  F
Ag       4.38052650       8.13602187      21.58180104  F
Ag       1.46017549       8.13602187      21.58180104  F
Ag       2.92035099       6.07102187      20.12162554  F
Ag       5.84070200       1.94102187      14.28092353  F
Ag      10.22122851       4.00602187      15.74109903  F
Ag       7.30087750       4.00602187      15.74109903  F
Ag       8.76105301       1.94102187      14.28092353  F
Ag       8.76105301       1.94102187      17.20127453  F
Ag       7.30087750       4.00602187      18.66145004  F
Ag      10.22122851       4.00602187      18.66145004  F
Ag       5.84070200       1.94102187      17.20127453  F
Ag      11.68140401       1.94102187      20.12162554  F
Ag      10.22122851       4.00602187      21.58180104  F
Ag       7.30087750       4.00602187      21.58180104  F
Ag       8.76105301       1.94102187      20.12162554  F
Ag       5.84070200       6.07102187      14.28092353  F
Ag      10.22122851       8.13602187      15.74109903  F
Ag       7.30087750       8.13602187      15.74109903  F
Ag       8.76105301       6.07102187      14.28092353  F
Ag       8.76105301       6.07102187      17.20127453  F
Ag       7.30087750       8.13602187      18.66145004  F
Ag      10.22122851       8.13602187      18.66145004  F
Ag       5.84070200       6.07102187      17.20127453  F
Ag      11.68140401       6.07102187      20.12162554  F
Ag      10.22122851       8.13602187      21.58180104  F
Ag       7.30087750       8.13602187      21.58180104  F
Ag       8.76105301       6.07102187      20.12162554  F
C        5.06459947       0.46122308      22.24646036  T
H        5.15463009       0.35761728      22.12607340  T
H        4.06704975       0.50870662      21.19504245  T
H        5.61544749       1.01827624      20.02566563  T
O        4.09245804       1.15756552      22.69129576  T
