53
Lattice="11.681404 0.0 0.0 0.0 8.26 0.0 0.0 0.0 37.300878" Properties=species:S:1:pos:R:3:move_mask:L:1 method=CHGNet energy=-154.27386474609375 max_force=0.380842387676239 pbc="T T T"
Ag      -0.00000001       1.03250000      13.09147837  F
Ag       4.38052650       3.09750000      14.55165387  F
Ag       1.46017549       3.09750000      14.55165387  F
Ag       2.92035099       1.03250000      13.09147837  F
Ag       2.92035099       1.03250000      16.01182938  F
Ag       1.46017549       3.09750000      17.47200488  F
Ag       4.38052650       3.09750000      17.47200488  F
Ag      -0.00000001       1.03250000      16.01182938  F
Ag       5.84070200       1.03250000      18.93218038  F
Ag       4.38052650       3.09750000      20.39235589  F
Ag       1.46017549       3.09750000      20.39235589  F
Ag       2.92035099       1.03250000      18.93218038  F
Ag      -0.00000001       5.16250000      13.09147837  F
Ag       4.38052650       7.22750000      14.55165387  F
Ag       1.46017549       7.22750000      14.55165387  F
Ag       2.92035099       5.16250000      13.09147837  F
Ag       2.92035099       5.16250000      16.01182938  F
Ag       1.46017549       7.22750000      17.47200488  F
Ag       4.38052650       7.22750000      17.47200488  F
Ag      -0.00000001       5.16250000      16.01182938  F
Ag       5.84070200       5.16250000      18.93218038  F
Ag       4.38052650       7.22750000      20.39235589  F
Ag       1.46017549       7.22750000      20.39235589  F
Ag       2.92035099       5.16250000      18.93218038  F
Ag       5.84070200       1.03250000      13.09147837  F
Ag      10.22122851       3.09750000      14.55165387  F
Ag       7.30087750       3.09750000      14.55165387  F
Ag       8.76105301       1.03250000      13.09147837  F
Ag       8.76105301       1.03250000      16.01182938  F
Ag       7.30087750       3.09750000      17.47200488  F
Ag      10.22122851       3.09750000      17.47200488  F
Ag       5.84070200       1.03250000      16.01182938  F
Ag      11.68140401       1.03250000      18.93218038  F
Ag      10.22122851       3.09750000      20.39235589  F
Ag       7.30087750       3.09750000      20.39235589  F
Ag       8.76105301       1.03250000      18.93218038  F
Ag       5.84070200       5.16250000      13.09147837  F
Ag      10.22122851       7.22750000      14.55165387  F
Ag       7.30087750       7.22750000      14.55165387  F
Ag       8.76105301       5.16250000      13.09147837  F
Ag       8.76105301       5.16250000      16.01182938  F
Ag       7.30087750       7.22750000      17.47200488  F
Ag      10.22122851       7.22750000      17.47200488  F
Ag       5.84070200       5.16250000      16.01182938  F
Ag      11.68140401       5.16250000      18.93218038  F
Ag      10.22122851       7.22750000      20.39235589  F
Ag       7.30087750       7.22750000      20.39235589  F
Ag       8.76105301       5.16250000      18.93218038  F
C        5.83711080       5.51356903      22.94828755  T
H        6.86134062       5.19791550      23.23380851  T
H        5.37500715       6.02011022      23.82244902  T
H        5.24689798       4.58726801      22.76248930  T
O        5.86622013       6.34137042      21.81080243  T
