53
Lattice="11.681404 0.0 0.0 0.0 8.26 0.0 0.0 0.0 37.300878" Properties=species:S:1:pos:R:3:move_mask:L:1 method=MACE-MP energy=-152.00001525878906 max_force=0.12555597722530365 pbc="T T T"
Ag      -0.00000001       1.03250000      13.09147837  F
Ag       4.38052650       3.09750000      14.55165387  F
Ag       1.46017549       3.09750000      14.55165387  F
Ag       2.92035099       1.03250000      13.09147837  F
Ag       2.92035099       1.03250000      16.01182938  F
Ag       1.46017549       3.09750000      17.47200488  F
Ag       4.38052650       3.09750000      17.47200488  F
Ag      -0.00000001       1.03250000      16.01182938  F
Ag       5.84070200       1.03250000      18.93218038  F
Ag       4.38052650       3.09750000      20.39235589  F
Ag       1.46017549       3.09750000      20.39235589  F
Ag       2.92035099       1.03250000      18.93218038  F
Ag      -0.00000001       5.16250000      13.09147837  F
Ag       4.38052650       7.22750000      14.55165387  F
Ag       1.46017549       7.22750000      14.55165387  F
Ag       2.92035099       5.16250000      13.09147837  F
Ag       2.92035099       5.16250000      16.01182938  F
Ag       1.46017549       7.22750000      17.47200488  F
Ag       4.38052650       7.22750000      17.47200488  F
Ag      -0.00000001       5.16250000      16.01182938  F
Ag       5.84070200       5.16250000      18.93218038  F
Ag       4.38052650       7.22750000      20.39235589  F
Ag       1.46017549       7.22750000      20.39235589  F
Ag       2.92035099       5.16250000      18.93218038  F
Ag       5.84070200       1.03250000      13.09147837  F
Ag      10.22122851       3.09750000      14.55165387  F
Ag       7.30087750       3.09750000      14.55165387  F
Ag       8.76105301       1.03250000      13.09147837  F
Ag       8.76105301       1.03250000      16.01182938  F
Ag       7.30087750       3.09750000      17.47200488  F
Ag      10.22122851       3.09750000      17.47200488  F
Ag       5.84070200       1.03250000      16.01182938  F
Ag      11.68140401       1.03250000      18.93218038  F
Ag      10.22122851       3.09750000      20.39235589  F
Ag       7.30087750       3.09750000      20.39235589  F
Ag       8.76105301       1.03250000      18.93218038  F
Ag       5.84070200       5.16250000      13.09147837  F
Ag      10.22122851       7.22750000      14.55165387  F
Ag       7.30087750       7.22750000      14.55165387  F
Ag       8.76105301       5.16250000      13.09147837  F
Ag       8.76105301       5.16250000      16.01182938  F
Ag       7.30087750       7.22750000      17.47200488  F
Ag      10.22122851       7.22750000      17.47200488  F
Ag       5.84070200       5.16250000      16.01182938  F
Ag      11.68140401       5.16250000      18.93218038  F
Ag      10.22122851       7.22750000      20.39235589  F
Ag       7.30087750       7.22750000      20.39235589  F
Ag       8.76105301       5.16250000      18.93218038  F
C        5.84215182       5.16173346      22.91702755  T
H        6.87429772       5.06589507      23.30722950  T
H        5.36260936       6.07750080      23.32027340  T
H        5.28432871       4.28623946      23.30145888  T
O        5.85445900       5.18936731      21.52340491  T
