45
Lattice="9.234961 0.0 0.0 7.387969 9.048377 0.0 0.0 0.0 37.587294" Properties=species:S:1:pos:R:3:move_mask:L:1 method=MACE-MP energy=-130.80947875976562 max_force=0.13981395959854126 pbc="T T T"
Ag       1.11150526       0.23142434      13.81224473  F
Ag       2.95849741       2.49351851      13.81224473  F
Ag       7.57597779       4.37859698      14.65527744  F
Ag       5.72898564       2.11650281      14.65527744  F
Ag      10.34646601       4.00158128      15.49831016  F
Ag       8.49947386       1.73948712      15.49831016  F
Ag       3.88199349       3.62456559      16.34134288  F
Ag       2.03500134       1.36247143      16.34134288  F
Ag       6.65248171       3.24754989      17.18437560  F
Ag       4.80548956       0.98545573      17.18437560  F
Ag       9.42296993       2.87053420      18.02740832  F
Ag       7.57597779       0.60844004      18.02740832  F
Ag       2.95849741       2.49351851      18.87044104  F
Ag       1.11150526       0.23142434      18.87044104  F
Ag       5.72898564       2.11650281      19.71347376  F
Ag       7.57597779       4.37859698      19.71347376  F
Ag       8.49947386       1.73948712      20.55650648  F
Ag      10.34646601       4.00158128      20.55650648  F
Ag       2.03500134       1.36247143      21.39953920  F
Ag       3.88199349       3.62456559      21.39953920  F
Ag       4.80548956       4.75561267      13.81224473  F
Ag       6.65248171       7.01770683      13.81224473  F
Ag      11.26996208       8.90278530      14.65527744  F
Ag       9.42296993       6.64069114      14.65527744  F
Ag      14.04045031       8.52576961      15.49831016  F
Ag      12.19345816       6.26367544      15.49831016  F
Ag       7.57597779       8.14875391      16.34134288  F
Ag       5.72898564       5.88665975      16.34134288  F
Ag      10.34646601       7.77173822      17.18437560  F
Ag       8.49947386       5.50964406      17.18437560  F
Ag      13.11695423       7.39472253      18.02740832  F
Ag      11.26996208       5.13262836      18.02740832  F
Ag       6.65248171       7.01770683      18.87044104  F
Ag       4.80548956       4.75561267      18.87044104  F
Ag       9.42296993       6.64069114      19.71347376  F
Ag      11.26996208       8.90278530      19.71347376  F
Ag      12.19345816       6.26367544      20.55650648  F
Ag      14.04045031       8.52576961      20.55650648  F
Ag       5.72898564       5.88665975      21.39953920  F
Ag       7.57597779       8.14875391      21.39953920  F
C        7.38957125       0.94066786      23.40235704  T
H        8.14365738       0.10818396      23.44577141  T
H        7.17177277       1.28357420      24.44003504  T
H        6.47417326       0.45395682      22.96886920  T
O        7.81186281       2.02843448      22.65199264  T
