45
Lattice="9.234961 0.0 0.0 7.387969 9.048377 0.0 0.0 0.0 37.587294" Properties=species:S:1:pos:R:3:move_mask:L:1 method=CHGNet energy=-133.00094604492188 max_force=0.1335432082414627 pbc="T T T"
Ag       1.11150526       0.23142434      13.81224473  F
Ag       2.95849741       2.49351851      13.81224473  F
Ag       7.57597779       4.37859698      14.65527744  F
Ag       5.72898564       2.11650281      14.65527744  F
Ag      10.34646601       4.00158128      15.49831016  F
Ag       8.49947386       1.73948712      15.49831016  F
Ag       3.88199349       3.62456559      16.34134288  F
Ag       2.03500134       1.36247143      16.34134288  F
Ag       6.65248171       3.24754989      17.18437560  F
Ag       4.80548956       0.98545573      17.18437560  F
Ag       9.42296993       2.87053420      18.02740832  F
Ag       7.57597779       0.60844004      18.02740832  F
Ag       2.95849741       2.49351851      18.87044104  F
Ag       1.11150526       0.23142434      18.87044104  F
Ag       5.72898564       2.11650281      19.71347376  F
Ag       7.57597779       4.37859698      19.71347376  F
Ag       8.49947386       1.73948712      20.55650648  F
Ag      10.34646601       4.00158128      20.55650648  F
Ag       2.03500134       1.36247143      21.39953920  F
Ag       3.88199349       3.62456559      21.39953920  F
Ag       4.80548956       4.75561267      13.81224473  F
Ag       6.65248171       7.01770683      13.81224473  F
Ag      11.26996208       8.90278530      14.65527744  F
Ag       9.42296993       6.64069114      14.65527744  F
Ag      14.04045031       8.52576961      15.49831016  F
Ag      12.19345816       6.26367544      15.49831016  F
Ag       7.57597779       8.14875391      16.34134288  F
Ag       5.72898564       5.88665975      16.34134288  F
Ag      10.34646601       7.77173822      17.18437560  F
Ag       8.49947386       5.50964406      17.18437560  F
Ag      13.11695423       7.39472253      18.02740832  F
Ag      11.26996208       5.13262836      18.02740832  F
Ag       6.65248171       7.01770683      18.87044104  F
Ag       4.80548956       4.75561267      18.87044104  F
Ag       9.42296993       6.64069114      19.71347376  F
Ag      11.26996208       8.90278530      19.71347376  F
Ag      12.19345816       6.26367544      20.55650648  F
Ag      14.04045031       8.52576961      20.55650648  F
Ag       5.72898564       5.88665975      21.39953920  F
Ag       7.57597779       8.14875391      21.39953920  F
C        7.25431037       1.09372482      23.42703853  T
H        8.00092269       0.27091443      23.47044648  T
H        7.12363469       1.46066933      24.46793202  T
H        6.29003527       0.61997554      23.13418940  T
O        7.62207012       2.13374536      22.57863449  T
