45
Lattice="9.234961 0.0 0.0 7.387969 9.048377 0.0 0.0 0.0 37.587294" Properties=species:S:1:pos:R:3:move_mask:L:1 method=CHGNet energy=-133.10748291015625 max_force=0.16460080444812775 pbc="T T T"
Ag       1.74314804       0.24983293      13.38544641  F
Ag       3.59014019       2.51192709      13.38544641  F
Ag       8.20762056       4.39700556      14.22847913  F
Ag       6.36062841       2.13491140      14.22847913  F
Ag      10.97810879       4.01998987      15.07151185  F
Ag       9.13111664       1.75789570      15.07151185  F
Ag       4.51363626       3.64297417      15.91454457  F
Ag       2.66664411       1.38088001      15.91454457  F
Ag       7.28412449       3.26595848      16.75757729  F
Ag       5.43713234       1.00386432      16.75757729  F
Ag      10.05461271       2.88894278      17.60061001  F
Ag       8.20762056       0.62684862      17.60061001  F
Ag       3.59014019       2.51192709      18.44364273  F
Ag       1.74314804       0.24983293      18.44364273  F
Ag       6.36062841       2.13491140      19.28667545  F
Ag       8.20762056       4.39700556      19.28667545  F
Ag       9.13111664       1.75789570      20.12970817  F
Ag      10.97810879       4.01998987      20.12970817  F
Ag       2.66664411       1.38088001      20.97274089  F
Ag       4.51363626       3.64297417      20.97274089  F
Ag       5.43713234       4.77402125      13.38544641  F
Ag       7.28412449       7.03611542      13.38544641  F
Ag      11.90160486       8.92119388      14.22847913  F
Ag      10.05461271       6.65909972      14.22847913  F
Ag      14.67209309       8.54417819      15.07151185  F
Ag      12.82510094       6.28208403      15.07151185  F
Ag       8.20762056       8.16716250      15.91454457  F
Ag       6.36062841       5.90506833      15.91454457  F
Ag      10.97810879       7.79014680      16.75757729  F
Ag       9.13111664       5.52805264      16.75757729  F
Ag      13.74859701       7.41313111      17.60061001  F
Ag      11.90160486       5.15103695      17.60061001  F
Ag       7.28412449       7.03611542      18.44364273  F
Ag       5.43713234       4.77402125      18.44364273  F
Ag      10.05461271       6.65909972      19.28667545  F
Ag      11.90160486       8.92119388      19.28667545  F
Ag      12.82510094       6.28208403      20.12970817  F
Ag      14.67209309       8.54417819      20.12970817  F
Ag       6.36062841       5.90506833      20.97274089  F
Ag       8.20762056       8.16716250      20.97274089  F
C        4.05409282       0.84265237      23.44026609  T
H        3.14551293       0.29840764      23.78904924  T
H        4.62887314       0.12164485      22.82031586  T
H        4.66578040       1.07852687      24.34138136  T
O        3.72364829       2.03007004      22.74912501  T
