45
Lattice="9.234961 0.0 0.0 7.387969 9.048377 0.0 0.0 0.0 37.587294" Properties=species:S:1:pos:R:3:move_mask:L:1 method=MACE-MP energy=-130.79360961914062 max_force=0.18577547371387482 pbc="T T T"
Ag       1.69307646       0.18850802      14.39386801  F
Ag       3.54006861       2.45060218      14.39386801  F
Ag       8.15754899       4.33568065      15.23690073  F
Ag       6.31055684       2.07358649      15.23690073  F
Ag      10.92803721       3.95866496      16.07993345  F
Ag       9.08104506       1.69657080      16.07993345  F
Ag       4.46356469       3.58164927      16.92296617  F
Ag       2.61657254       1.31955510      16.92296617  F
Ag       7.23405291       3.20463357      17.76599889  F
Ag       5.38706076       0.94253941      17.76599889  F
Ag      10.00454113       2.82761788      18.60903161  F
Ag       8.15754899       0.56552372      18.60903161  F
Ag       3.54006861       2.45060218      19.45206433  F
Ag       1.69307646       0.18850802      19.45206433  F
Ag       6.31055684       2.07358649      20.29509705  F
Ag       8.15754899       4.33568065      20.29509705  F
Ag       9.08104506       1.69657080      21.13812977  F
Ag      10.92803721       3.95866496      21.13812977  F
Ag       2.61657254       1.31955510      21.98116249  F
Ag       4.46356469       3.58164927      21.98116249  F
Ag       5.38706076       4.71269635      14.39386801  F
Ag       7.23405291       6.97479051      14.39386801  F
Ag      11.85153328       8.85986898      15.23690073  F
Ag      10.00454113       6.59777482      15.23690073  F
Ag      14.62202151       8.48285328      16.07993345  F
Ag      12.77502936       6.22075912      16.07993345  F
Ag       8.15754899       8.10583759      16.92296617  F
Ag       6.31055684       5.84374343      16.92296617  F
Ag      10.92803721       7.72882190      17.76599889  F
Ag       9.08104506       5.46672773      17.76599889  F
Ag      13.69852543       7.35180620      18.60903161  F
Ag      11.85153328       5.08971204      18.60903161  F
Ag       7.23405291       6.97479051      19.45206433  F
Ag       5.38706076       4.71269635      19.45206433  F
Ag      10.00454113       6.59777482      20.29509705  F
Ag      11.85153328       8.85986898      20.29509705  F
Ag      12.77502936       6.22075912      21.13812977  F
Ag      14.62202151       8.48285328      21.13812977  F
Ag       6.31055684       5.84374343      21.98116249  F
Ag       8.15754899       8.10583759      21.98116249  F
C        7.80479480       3.71310362      23.70636306  T
H        6.68342463       3.74432797      23.68280081  T
H        8.14337708       3.65697676      24.75782372  T
H        8.13311260       4.67968980      23.22125770  T
O        8.25970628       2.60706577      23.04294561  T
