45
Lattice="9.234961 0.0 0.0 7.387969 9.048377 0.0 0.0 0.0 37.587294" Properties=species:S:1:pos:R:3:move_mask:L:1 method=MACE-MP energy=-130.9298858642578 max_force=0.17436344921588898 pbc="T T T"
Ag       1.69307646       0.18850802      13.81333219  F
Ag       3.54006861       2.45060218      13.81333219  F
Ag       8.15754899       4.33568065      14.65636491  F
Ag       6.31055684       2.07358649      14.65636491  F
Ag      10.92803721       3.95866496      15.49939763  F
Ag       9.08104506       1.69657080      15.49939763  F
Ag       4.46356469       3.58164927      16.34243035  F
Ag       2.61657254       1.31955510      16.34243035  F
Ag       7.23405291       3.20463357      17.18546307  F
Ag       5.38706076       0.94253941      17.18546307  F
Ag      10.00454113       2.82761788      18.02849579  F
Ag       8.15754899       0.56552372      18.02849579  F
Ag       3.54006861       2.45060218      18.87152851  F
Ag       1.69307646       0.18850802      18.87152851  F
Ag       6.31055684       2.07358649      19.71456123  F
Ag       8.15754899       4.33568065      19.71456123  F
Ag       9.08104506       1.69657080      20.55759395  F
Ag      10.92803721       3.95866496      20.55759395  F
Ag       2.61657254       1.31955510      21.40062667  F
Ag       4.46356469       3.58164927      21.40062667  F
Ag       5.38706076       4.71269635      13.81333219  F
Ag       7.23405291       6.97479051      13.81333219  F
Ag      11.85153328       8.85986898      14.65636491  F
Ag      10.00454113       6.59777482      14.65636491  F
Ag      14.62202151       8.48285328      15.49939763  F
Ag      12.77502936       6.22075912      15.49939763  F
Ag       8.15754899       8.10583759      16.34243035  F
Ag       6.31055684       5.84374343      16.34243035  F
Ag      10.92803721       7.72882190      17.18546307  F
Ag       9.08104506       5.46672773      17.18546307  F
Ag      13.69852543       7.35180620      18.02849579  F
Ag      11.85153328       5.08971204      18.02849579  F
Ag       7.23405291       6.97479051      18.87152851  F
Ag       5.38706076       4.71269635      18.87152851  F
Ag      10.00454113       6.59777482      19.71456123  F
Ag      11.85153328       8.85986898      19.71456123  F
Ag      12.77502936       6.22075912      20.55759395  F
Ag      14.62202151       8.48285328      20.55759395  F
Ag       6.31055684       5.84374343      21.40062667  F
Ag       8.15754899       8.10583759      21.40062667  F
C        9.66497304       4.71436859      23.25307340  T
H        8.65655835       5.18642485      23.17156268  T
H        9.80778219       4.33756178      24.27779161  T
H       10.42508010       5.50629628      23.06359256  T
O        9.80546296       3.59821228      22.43488087  T
