45
Lattice="9.234961 0.0 0.0 7.387969 9.048377 0.0 0.0 0.0 37.587294" Properties=species:S:1:pos:R:3:move_mask:L:1 method=CHGNet energy=-133.1726531982422 max_force=0.19392959773540497 pbc="T T T"
Ag       2.29095807       0.18850802      13.38544641  F
Ag       4.13795022       2.45060218      13.38544641  F
Ag       8.75543059       4.33568065      14.22847913  F
Ag       6.90843844       2.07358649      14.22847913  F
Ag      11.52591881       3.95866496      15.07151185  F
Ag       9.67892666       1.69657080      15.07151185  F
Ag       5.06144629       3.58164927      15.91454457  F
Ag       3.21445414       1.31955510      15.91454457  F
Ag       7.83193451       3.20463357      16.75757729  F
Ag       5.98494237       0.94253941      16.75757729  F
Ag      10.60242274       2.82761788      17.60061001  F
Ag       8.75543059       0.56552372      17.60061001  F
Ag       4.13795022       2.45060218      18.44364273  F
Ag       2.29095807       0.18850802      18.44364273  F
Ag       6.90843844       2.07358649      19.28667545  F
Ag       8.75543059       4.33568065      19.28667545  F
Ag       9.67892666       1.69657080      20.12970817  F
Ag      11.52591881       3.95866496      20.12970817  F
Ag       3.21445414       1.31955510      20.97274089  F
Ag       5.06144629       3.58164927      20.97274089  F
Ag       5.98494237       4.71269635      13.38544641  F
Ag       7.83193451       6.97479051      13.38544641  F
Ag      12.44941489       8.85986898      14.22847913  F
Ag      10.60242274       6.59777482      14.22847913  F
Ag      15.21990311       8.48285328      15.07151185  F
Ag      13.37291096       6.22075912      15.07151185  F
Ag       8.75543059       8.10583759      15.91454457  F
Ag       6.90843844       5.84374343      15.91454457  F
Ag      11.52591881       7.72882190      16.75757729  F
Ag       9.67892666       5.46672773      16.75757729  F
Ag      14.29640704       7.35180620      17.60061001  F
Ag      12.44941489       5.08971204      17.60061001  F
Ag       7.83193451       6.97479051      18.44364273  F
Ag       5.98494237       4.71269635      18.44364273  F
Ag      10.60242274       6.59777482      19.28667545  F
Ag      12.44941489       8.85986898      19.28667545  F
Ag      13.37291096       6.22075912      20.12970817  F
Ag      15.21990311       8.48285328      20.12970817  F
Ag       6.90843844       5.84374343      20.97274089  F
Ag       8.75543059       8.10583759      20.97274089  F
C        4.50990680       3.09740078      23.67728043  T
H        5.43244565       3.67608225      23.91714467  T
H        3.72681328       3.85768140      23.44856082  T
H        4.18311253       2.55482117      24.58542485  T
O        4.74389475       2.17738852      22.61928092  T
