45
Lattice="9.234961 0.0 0.0 7.387969 9.048377 0.0 0.0 0.0 37.587294" Properties=species:S:1:pos:R:3:move_mask:L:1 method=CHGNet energy=-133.0644989013672 max_force=0.15888728201389313 pbc="T T T"
Ag       1.52360820       0.19389483      14.07587831  F
Ag       3.37060035       2.45598899      14.07587831  F
Ag       7.98808073       4.34106746      14.91891103  F
Ag       6.14108858       2.07897330      14.91891103  F
Ag      10.75856895       3.96405177      15.76194375  F
Ag       8.91157680       1.70195760      15.76194375  F
Ag       4.29409643       3.58703607      16.60497647  F
Ag       2.44710428       1.32494191      16.60497647  F
Ag       7.06458465       3.21002038      17.44800919  F
Ag       5.21759250       0.94792622      17.44800919  F
Ag       9.83507287       2.83300469      18.29104191  F
Ag       7.98808073       0.57091052      18.29104191  F
Ag       3.37060035       2.45598899      19.13407463  F
Ag       1.52360820       0.19389483      19.13407463  F
Ag       6.14108858       2.07897330      19.97710735  F
Ag       7.98808073       4.34106746      19.97710735  F
Ag       8.91157680       1.70195760      20.82014007  F
Ag      10.75856895       3.96405177      20.82014007  F
Ag       2.44710428       1.32494191      21.66317279  F
Ag       4.29409643       3.58703607      21.66317279  F
Ag       5.21759250       4.71808315      14.07587831  F
Ag       7.06458465       6.98017732      14.07587831  F
Ag      11.68206502       8.86525579      14.91891103  F
Ag       9.83507287       6.60316162      14.91891103  F
Ag      14.45255325       8.48824009      15.76194375  F
Ag      12.60556110       6.22614593      15.76194375  F
Ag       7.98808073       8.11122440      16.60497647  F
Ag       6.14108858       5.84913024      16.60497647  F
Ag      10.75856895       7.73420870      17.44800919  F
Ag       8.91157680       5.47211454      17.44800919  F
Ag      13.52905717       7.35719301      18.29104191  F
Ag      11.68206502       5.09509885      18.29104191  F
Ag       7.06458465       6.98017732      19.13407463  F
Ag       5.21759250       4.71808315      19.13407463  F
Ag       9.83507287       6.60316162      19.97710735  F
Ag      11.68206502       8.86525579      19.97710735  F
Ag      12.60556110       6.22614593      20.82014007  F
Ag      14.45255325       8.48824009      20.82014007  F
Ag       6.14108858       5.84913024      21.66317279  F
Ag       7.98808073       8.11122440      21.66317279  F
C        6.82217843       1.03654260      23.32045327  T
H        7.25925111       0.01118113      23.32209197  T
H        6.83732950       1.41577400      24.36210609  T
H        5.74696709       0.95302327      23.04810353  T
O        7.46474896       1.94834404      22.48655395  T
