53
Lattice="11.681404 0.0 0.0 0.0 8.26 0.0 0.0 0.0 37.300878" Properties=species:S:1:pos:R:3:move_mask:L:1 method=MACE-MP energy=-152.00099182128906 max_force=0.14659449458122253 pbc="T T T"
Ag      -0.00000001       1.03250000      13.55083578  F
Ag       4.38052650       3.09750000      15.01101128  F
Ag       1.46017549       3.09750000      15.01101128  F
Ag       2.92035099       1.03250000      13.55083578  F
Ag       2.92035099       1.03250000      16.47118678  F
Ag       1.46017549       3.09750000      17.93136228  F
Ag       4.38052650       3.09750000      17.93136228  F
Ag      -0.00000001       1.03250000      16.47118678  F
Ag       5.84070200       1.03250000      19.39153779  F
Ag       4.38052650       3.09750000      20.85171329  F
Ag       1.46017549       3.09750000      20.85171329  F
Ag       2.92035099       1.03250000      19.39153779  F
Ag      -0.00000001       5.16250000      13.55083578  F
Ag       4.38052650       7.22750000      15.01101128  F
Ag       1.46017549       7.22750000      15.01101128  F
Ag       2.92035099       5.16250000      13.55083578  F
Ag       2.92035099       5.16250000      16.47118678  F
Ag       1.46017549       7.22750000      17.93136228  F
Ag       4.38052650       7.22750000      17.93136228  F
Ag      -0.00000001       5.16250000      16.47118678  F
Ag       5.84070200       5.16250000      19.39153779  F
Ag       4.38052650       7.22750000      20.85171329  F
Ag       1.46017549       7.22750000      20.85171329  F
Ag       2.92035099       5.16250000      19.39153779  F
Ag       5.84070200       1.03250000      13.55083578  F
Ag      10.22122851       3.09750000      15.01101128  F
Ag       7.30087750       3.09750000      15.01101128  F
Ag       8.76105301       1.03250000      13.55083578  F
Ag       8.76105301       1.03250000      16.47118678  F
Ag       7.30087750       3.09750000      17.93136228  F
Ag      10.22122851       3.09750000      17.93136228  F
Ag       5.84070200       1.03250000      16.47118678  F
Ag      11.68140401       1.03250000      19.39153779  F
Ag      10.22122851       3.09750000      20.85171329  F
Ag       7.30087750       3.09750000      20.85171329  F
Ag       8.76105301       1.03250000      19.39153779  F
Ag       5.84070200       5.16250000      13.55083578  F
Ag      10.22122851       7.22750000      15.01101128  F
Ag       7.30087750       7.22750000      15.01101128  F
Ag       8.76105301       5.16250000      13.55083578  F
Ag       8.76105301       5.16250000      16.47118678  F
Ag       7.30087750       7.22750000      17.93136228  F
Ag      10.22122851       7.22750000      17.93136228  F
Ag       5.84070200       5.16250000      16.47118678  F
Ag      11.68140401       5.16250000      19.39153779  F
Ag      10.22122851       7.22750000      20.85171329  F
Ag       7.30087750       7.22750000      20.85171329  F
Ag       8.76105301       5.16250000      19.39153779  F
C        6.25054964       4.95165899      23.40618441  T
H        7.25048152       4.55026803      23.66552509  T
H        6.10410090       5.90673783      23.93755600  T
H        5.48759501       4.21933161      23.73787874  T
O        6.13680598       5.20970521      22.03906734  T
