53
Lattice="11.681404 0.0 0.0 0.0 8.26 0.0 0.0 0.0 37.300878" Properties=species:S:1:pos:R:3:move_mask:L:1 method=MACE-MP energy=-149.8898468017578 max_force=0.1584666222333908 pbc="T T T"
Ag      -0.00000001       1.94102187      14.28092353  F
Ag       4.38052650       4.00602187      15.74109903  F
Ag       1.46017549       4.00602187      15.74109903  F
Ag       2.92035099       1.94102187      14.28092353  F
Ag       2.92035099       1.94102187      17.20127453  F
Ag       1.46017549       4.00602187      18.66145004  F
Ag       4.38052650       4.00602187      18.66145004  F
Ag      -0.00000001       1.94102187      17.20127453  F
Ag       5.84070200       1.94102187      20.12162554  F
Ag       4.38052650       4.00602187      21.58180104  F
Ag       1.46017549       4.00602187      21.58180104  F
Ag       2.92035099       1.94102187      20.12162554  F
Ag      -0.00000001       6.07102187      14.28092353  F
Ag       4.38052650       8.13602187      15.74109903  F
Ag       1.46017549       8.13602187      15.74109903  F
Ag       2.92035099       6.07102187      14.28092353  F
Ag       2.92035099       6.07102187      17.20127453  F
Ag       1.46017549       8.13602187      18.66145004  F
Ag       4.38052650       8.13602187      18.66145004  F
Ag      -0.00000001       6.07102187      17.20127453  F
Ag       5.84070200       6.07102187      20.12162554  F
Ag       4.38052650       8.13602187      21.58180104  F
Ag       1.46017549       8.13602187      21.58180104  F
Ag       2.92035099       6.07102187      20.12162554  F
Ag       5.84070200       1.94102187      14.28092353  F
Ag      10.22122851       4.00602187      15.74109903  F
Ag       7.30087750       4.00602187      15.74109903  F
Ag       8.76105301       1.94102187      14.28092353  F
Ag       8.76105301       1.94102187      17.20127453  F
Ag       7.30087750       4.00602187      18.66145004  F
Ag      10.22122851       4.00602187      18.66145004  F
Ag       5.84070200       1.94102187      17.20127453  F
Ag      11.68140401       1.94102187      20.12162554  F
Ag      10.22122851       4.00602187      21.58180104  F
Ag       7.30087750       4.00602187      21.58180104  F
Ag       8.76105301       1.94102187      20.12162554  F
Ag       5.84070200       6.07102187      14.28092353  F
Ag      10.22122851       8.13602187      15.74109903  F
Ag       7.30087750       8.13602187      15.74109903  F
Ag       8.76105301       6.07102187      14.28092353  F
Ag       8.76105301       6.07102187      17.20127453  F
Ag       7.30087750       8.13602187      18.66145004  F
Ag      10.22122851       8.13602187      18.66145004  F
Ag       5.84070200       6.07102187      17.20127453  F
Ag      11.68140401       6.07102187      20.12162554  F
Ag      10.22122851       8.13602187      21.58180104  F
Ag       7.30087750       8.13602187      21.58180104  F
Ag       8.76105301       6.07102187      20.12162554  F
C        5.54142590       0.63315069      23.34826135  T
H        8.76841443       0.31347326      22.50460060  T
H        5.73006510      -0.21349210      24.08705784  T
H        5.84165357       0.14082535      20.53838133  T
O        5.54403421       1.79253191      23.67639159  T
