53
Lattice="11.681404 0.0 0.0 0.0 8.26 0.0 0.0 0.0 37.300878" Properties=species:S:1:pos:R:3:move_mask:L:1 method=CHGNet energy=-147.12936401367188 max_force=0.13773617148399353 pbc="T T T"
Ag      -0.00000001       1.94102187      14.28092353  F
Ag       4.38052650       4.00602187      15.74109903  F
Ag       1.46017549       4.00602187      15.74109903  F
Ag       2.92035099       1.94102187      14.28092353  F
Ag       2.92035099       1.94102187      17.20127453  F
Ag       1.46017549       4.00602187      18.66145004  F
Ag       4.38052650       4.00602187      18.66145004  F
Ag      -0.00000001       1.94102187      17.20127453  F
Ag       5.84070200       1.94102187      20.12162554  F
Ag       4.38052650       4.00602187      21.58180104  F
Ag       1.46017549       4.00602187      21.58180104  F
Ag       2.92035099       1.94102187      20.12162554  F
Ag      -0.00000001       6.07102187      14.28092353  F
Ag       4.38052650       8.13602187      15.74109903  F
Ag       1.46017549       8.13602187      15.74109903  F
Ag       2.92035099       6.07102187      14.28092353  F
Ag       2.92035099       6.07102187      17.20127453  F
Ag       1.46017549       8.13602187      18.66145004  F
Ag       4.38052650       8.13602187      18.66145004  F
Ag      -0.00000001       6.07102187      17.20127453  F
Ag       5.84070200       6.07102187      20.12162554  F
Ag       4.38052650       8.13602187      21.58180104  F
Ag       1.46017549       8.13602187      21.58180104  F
Ag       2.92035099       6.07102187      20.12162554  F
Ag       5.84070200       1.94102187      14.28092353  F
Ag      10.22122851       4.00602187      15.74109903  F
Ag       7.30087750       4.00602187      15.74109903  F
Ag       8.76105301       1.94102187      14.28092353  F
Ag       8.76105301       1.94102187      17.20127453  F
Ag       7.30087750       4.00602187      18.66145004  F
Ag      10.22122851       4.00602187      18.66145004  F
Ag       5.84070200       1.94102187      17.20127453  F
Ag      11.68140401       1.94102187      20.12162554  F
Ag      10.22122851       4.00602187      21.58180104  F
Ag       7.30087750       4.00602187      21.58180104  F
Ag       8.76105301       1.94102187      20.12162554  F
Ag       5.84070200       6.07102187      14.28092353  F
Ag      10.22122851       8.13602187      15.74109903  F
Ag       7.30087750       8.13602187      15.74109903  F
Ag       8.76105301       6.07102187      14.28092353  F
Ag       8.76105301       6.07102187      17.20127453  F
Ag       7.30087750       8.13602187      18.66145004  F
Ag      10.22122851       8.13602187      18.66145004  F
Ag       5.84070200       6.07102187      17.20127453  F
Ag      11.68140401       6.07102187      20.12162554  F
Ag      10.22122851       8.13602187      21.58180104  F
Ag       7.30087750       8.13602187      21.58180104  F
Ag       8.76105301       6.07102187      20.12162554  F
C        6.37886756       0.95741460      23.24311021  T
H        6.99255477       0.23070784      22.09812892  T
H        5.76808010       0.37327624      23.95603510  T
H        5.68275509      -0.08087496      20.27137768  T
O        6.86660953       2.05840432      23.50007703  T
