45
Lattice="9.234961 0.0 0.0 7.387969 9.048377 0.0 0.0 0.0 37.587294" Properties=species:S:1:pos:R:3:move_mask:L:1 method=CHGNet energy=-132.94813537597656 max_force=0.19452640414237976 pbc="T T T"
Ag       1.69307646       0.18850802      13.93451061  F
Ag       3.54006861       2.45060218      13.93451061  F
Ag       8.15754899       4.33568065      14.77754333  F
Ag       6.31055684       2.07358649      14.77754333  F
Ag      10.92803721       3.95866496      15.62057605  F
Ag       9.08104506       1.69657080      15.62057605  F
Ag       4.46356469       3.58164927      16.46360877  F
Ag       2.61657254       1.31955510      16.46360877  F
Ag       7.23405291       3.20463357      17.30664149  F
Ag       5.38706076       0.94253941      17.30664149  F
Ag      10.00454113       2.82761788      18.14967421  F
Ag       8.15754899       0.56552372      18.14967421  F
Ag       3.54006861       2.45060218      18.99270693  F
Ag       1.69307646       0.18850802      18.99270693  F
Ag       6.31055684       2.07358649      19.83573965  F
Ag       8.15754899       4.33568065      19.83573965  F
Ag       9.08104506       1.69657080      20.67877237  F
Ag      10.92803721       3.95866496      20.67877237  F
Ag       2.61657254       1.31955510      21.52180509  F
Ag       4.46356469       3.58164927      21.52180509  F
Ag       5.38706076       4.71269635      13.93451061  F
Ag       7.23405291       6.97479051      13.93451061  F
Ag      11.85153328       8.85986898      14.77754333  F
Ag      10.00454113       6.59777482      14.77754333  F
Ag      14.62202151       8.48285328      15.62057605  F
Ag      12.77502936       6.22075912      15.62057605  F
Ag       8.15754899       8.10583759      16.46360877  F
Ag       6.31055684       5.84374343      16.46360877  F
Ag      10.92803721       7.72882190      17.30664149  F
Ag       9.08104506       5.46672773      17.30664149  F
Ag      13.69852543       7.35180620      18.14967421  F
Ag      11.85153328       5.08971204      18.14967421  F
Ag       7.23405291       6.97479051      18.99270693  F
Ag       5.38706076       4.71269635      18.99270693  F
Ag      10.00454113       6.59777482      19.83573965  F
Ag      11.85153328       8.85986898      19.83573965  F
Ag      12.77502936       6.22075912      20.67877237  F
Ag      14.62202151       8.48285328      20.67877237  F
Ag       6.31055684       5.84374343      21.52180509  F
Ag       8.15754899       8.10583759      21.52180509  F
C        6.34929951       2.06133450      23.49651070  T
H        5.32396115       2.15500652      23.90506525  T
H        6.82355194       1.21162002      24.02506759  T
H        6.90678463       2.96575320      23.80966378  T
O        6.37021351       1.84150909      22.11999420  T
