53
Lattice="11.681404 0.0 0.0 0.0 8.26 0.0 0.0 0.0 37.300878" Properties=species:S:1:pos:R:3:move_mask:L:1 method=CHGNet energy=-154.45559692382812 max_force=0.15150490403175354 pbc="T T T"
Ag      -0.00000001       1.48166447      13.82156612  F
Ag       4.38052650       3.54666447      15.28174163  F
Ag       1.46017549       3.54666447      15.28174163  F
Ag       2.92035099       1.48166447      13.82156612  F
Ag       2.92035099       1.48166447      16.74191713  F
Ag       1.46017549       3.54666447      18.20209263  F
Ag       4.38052650       3.54666447      18.20209263  F
Ag      -0.00000001       1.48166447      16.74191713  F
Ag       5.84070200       1.48166447      19.66226813  F
Ag       4.38052650       3.54666447      21.12244364  F
Ag       1.46017549       3.54666447      21.12244364  F
Ag       2.92035099       1.48166447      19.66226813  F
Ag      -0.00000001       5.61166447      13.82156612  F
Ag       4.38052650       7.67666447      15.28174163  F
Ag       1.46017549       7.67666447      15.28174163  F
Ag       2.92035099       5.61166447      13.82156612  F
Ag       2.92035099       5.61166447      16.74191713  F
Ag       1.46017549       7.67666447      18.20209263  F
Ag       4.38052650       7.67666447      18.20209263  F
Ag      -0.00000001       5.61166447      16.74191713  F
Ag       5.84070200       5.61166447      19.66226813  F
Ag       4.38052650       7.67666447      21.12244364  F
Ag       1.46017549       7.67666447      21.12244364  F
Ag       2.92035099       5.61166447      19.66226813  F
Ag       5.84070200       1.48166447      13.82156612  F
Ag      10.22122851       3.54666447      15.28174163  F
Ag       7.30087750       3.54666447      15.28174163  F
Ag       8.76105301       1.48166447      13.82156612  F
Ag       8.76105301       1.48166447      16.74191713  F
Ag       7.30087750       3.54666447      18.20209263  F
Ag      10.22122851       3.54666447      18.20209263  F
Ag       5.84070200       1.48166447      16.74191713  F
Ag      11.68140401       1.48166447      19.66226813  F
Ag      10.22122851       3.54666447      21.12244364  F
Ag       7.30087750       3.54666447      21.12244364  F
Ag       8.76105301       1.48166447      19.66226813  F
Ag       5.84070200       5.61166447      13.82156612  F
Ag      10.22122851       7.67666447      15.28174163  F
Ag       7.30087750       7.67666447      15.28174163  F
Ag       8.76105301       5.61166447      13.82156612  F
Ag       8.76105301       5.61166447      16.74191713  F
Ag       7.30087750       7.67666447      18.20209263  F
Ag      10.22122851       7.67666447      18.20209263  F
Ag       5.84070200       5.61166447      16.74191713  F
Ag      11.68140401       5.61166447      19.66226813  F
Ag      10.22122851       7.67666447      21.12244364  F
Ag       7.30087750       7.67666447      21.12244364  F
Ag       8.76105301       5.61166447      19.66226813  F
C        5.83383158       0.88234085      23.59528409  T
H        4.81103422       1.27765216      23.78200766  T
H        6.32947025       0.65483482      24.56287312  T
H        6.41319364       1.71444289      23.14629388  T
O        5.81117674      -0.30437761      22.82081081  T
