45
Lattice="9.234961 0.0 0.0 7.387969 9.048377 0.0 0.0 0.0 37.587294" Properties=species:S:1:pos:R:3:move_mask:L:1 method=MACE-MP energy=-131.01783752441406 max_force=0.19950269162654877 pbc="T T T"
Ag       1.69307646       0.18850802      13.93451061  F
Ag       3.54006861       2.45060218      13.93451061  F
Ag       8.15754899       4.33568065      14.77754333  F
Ag       6.31055684       2.07358649      14.77754333  F
Ag      10.92803721       3.95866496      15.62057605  F
Ag       9.08104506       1.69657080      15.62057605  F
Ag       4.46356469       3.58164927      16.46360877  F
Ag       2.61657254       1.31955510      16.46360877  F
Ag       7.23405291       3.20463357      17.30664149  F
Ag       5.38706076       0.94253941      17.30664149  F
Ag      10.00454113       2.82761788      18.14967421  F
Ag       8.15754899       0.56552372      18.14967421  F
Ag       3.54006861       2.45060218      18.99270693  F
Ag       1.69307646       0.18850802      18.99270693  F
Ag       6.31055684       2.07358649      19.83573965  F
Ag       8.15754899       4.33568065      19.83573965  F
Ag       9.08104506       1.69657080      20.67877237  F
Ag      10.92803721       3.95866496      20.67877237  F
Ag       2.61657254       1.31955510      21.52180509  F
Ag       4.46356469       3.58164927      21.52180509  F
Ag       5.38706076       4.71269635      13.93451061  F
Ag       7.23405291       6.97479051      13.93451061  F
Ag      11.85153328       8.85986898      14.77754333  F
Ag      10.00454113       6.59777482      14.77754333  F
Ag      14.62202151       8.48285328      15.62057605  F
Ag      12.77502936       6.22075912      15.62057605  F
Ag       8.15754899       8.10583759      16.46360877  F
Ag       6.31055684       5.84374343      16.46360877  F
Ag      10.92803721       7.72882190      17.30664149  F
Ag       9.08104506       5.46672773      17.30664149  F
Ag      13.69852543       7.35180620      18.14967421  F
Ag      11.85153328       5.08971204      18.14967421  F
Ag       7.23405291       6.97479051      18.99270693  F
Ag       5.38706076       4.71269635      18.99270693  F
Ag      10.00454113       6.59777482      19.83573965  F
Ag      11.85153328       8.85986898      19.83573965  F
Ag      12.77502936       6.22075912      20.67877237  F
Ag      14.62202151       8.48285328      20.67877237  F
Ag       6.31055684       5.84374343      21.52180509  F
Ag       8.15754899       8.10583759      21.52180509  F
C        6.35441116       2.05931977      23.73699989  T
H        5.37582751       2.15249690      24.24956154  T
H        6.85696235       1.12090643      24.06264386  T
H        6.98702609       2.91638395      24.04550957  T
O        6.12590494       2.11481365      22.37052628  T
