53
Lattice="11.681404 0.0 0.0 0.0 8.26 0.0 0.0 0.0 37.300878" Properties=species:S:1:pos:R:3:move_mask:L:1 method=CHGNet energy=-154.45443725585938 max_force=0.12737610936164856 pbc="T T T"
Ag      -0.00000001       1.03250000      13.54852560  F
Ag       4.38052650       3.09750000      15.00870110  F
Ag       1.46017549       3.09750000      15.00870110  F
Ag       2.92035099       1.03250000      13.54852560  F
Ag       2.92035099       1.03250000      16.46887660  F
Ag       1.46017549       3.09750000      17.92905211  F
Ag       4.38052650       3.09750000      17.92905211  F
Ag      -0.00000001       1.03250000      16.46887660  F
Ag       5.84070200       1.03250000      19.38922761  F
Ag       4.38052650       3.09750000      20.84940311  F
Ag       1.46017549       3.09750000      20.84940311  F
Ag       2.92035099       1.03250000      19.38922761  F
Ag      -0.00000001       5.16250000      13.54852560  F
Ag       4.38052650       7.22750000      15.00870110  F
Ag       1.46017549       7.22750000      15.00870110  F
Ag       2.92035099       5.16250000      13.54852560  F
Ag       2.92035099       5.16250000      16.46887660  F
Ag       1.46017549       7.22750000      17.92905211  F
Ag       4.38052650       7.22750000      17.92905211  F
Ag      -0.00000001       5.16250000      16.46887660  F
Ag       5.84070200       5.16250000      19.38922761  F
Ag       4.38052650       7.22750000      20.84940311  F
Ag       1.46017549       7.22750000      20.84940311  F
Ag       2.92035099       5.16250000      19.38922761  F
Ag       5.84070200       1.03250000      13.54852560  F
Ag      10.22122851       3.09750000      15.00870110  F
Ag       7.30087750       3.09750000      15.00870110  F
Ag       8.76105301       1.03250000      13.54852560  F
Ag       8.76105301       1.03250000      16.46887660  F
Ag       7.30087750       3.09750000      17.92905211  F
Ag      10.22122851       3.09750000      17.92905211  F
Ag       5.84070200       1.03250000      16.46887660  F
Ag      11.68140401       1.03250000      19.38922761  F
Ag      10.22122851       3.09750000      20.84940311  F
Ag       7.30087750       3.09750000      20.84940311  F
Ag       8.76105301       1.03250000      19.38922761  F
Ag       5.84070200       5.16250000      13.54852560  F
Ag      10.22122851       7.22750000      15.00870110  F
Ag       7.30087750       7.22750000      15.00870110  F
Ag       8.76105301       5.16250000      13.54852560  F
Ag       8.76105301       5.16250000      16.46887660  F
Ag       7.30087750       7.22750000      17.92905211  F
Ag      10.22122851       7.22750000      17.92905211  F
Ag       5.84070200       5.16250000      16.46887660  F
Ag      11.68140401       5.16250000      19.38922761  F
Ag      10.22122851       7.22750000      20.84940311  F
Ag       7.30087750       7.22750000      20.84940311  F
Ag       8.76105301       5.16250000      19.38922761  F
C        2.94690152       4.70190560      23.18988473  T
H        3.97456802       5.00721216      23.46999586  T
H        2.51653561       5.52456886      22.58243677  T
H        2.33741256       4.63635481      24.10864225  T
O        2.92633557       3.45655115      22.52249462  T
