53
Lattice="11.681404 0.0 0.0 0.0 8.26 0.0 0.0 0.0 37.300878" Properties=species:S:1:pos:R:3:move_mask:L:1 method=CHGNet energy=-154.44931030273438 max_force=0.16403299570083618 pbc="T T T"
Ag      -0.00000001       1.42477187      13.91356947  F
Ag       4.38052650       3.48977187      15.37374497  F
Ag       1.46017549       3.48977187      15.37374497  F
Ag       2.92035099       1.42477187      13.91356947  F
Ag       2.92035099       1.42477187      16.83392048  F
Ag       1.46017549       3.48977187      18.29409598  F
Ag       4.38052650       3.48977187      18.29409598  F
Ag      -0.00000001       1.42477187      16.83392048  F
Ag       5.84070200       1.42477187      19.75427148  F
Ag       4.38052650       3.48977187      21.21444699  F
Ag       1.46017549       3.48977187      21.21444699  F
Ag       2.92035099       1.42477187      19.75427148  F
Ag      -0.00000001       5.55477187      13.91356947  F
Ag       4.38052650       7.61977187      15.37374497  F
Ag       1.46017549       7.61977187      15.37374497  F
Ag       2.92035099       5.55477187      13.91356947  F
Ag       2.92035099       5.55477187      16.83392048  F
Ag       1.46017549       7.61977187      18.29409598  F
Ag       4.38052650       7.61977187      18.29409598  F
Ag      -0.00000001       5.55477187      16.83392048  F
Ag       5.84070200       5.55477187      19.75427148  F
Ag       4.38052650       7.61977187      21.21444699  F
Ag       1.46017549       7.61977187      21.21444699  F
Ag       2.92035099       5.55477187      19.75427148  F
Ag       5.84070200       1.42477187      13.91356947  F
Ag      10.22122851       3.48977187      15.37374497  F
Ag       7.30087750       3.48977187      15.37374497  F
Ag       8.76105301       1.42477187      13.91356947  F
Ag       8.76105301       1.42477187      16.83392048  F
Ag       7.30087750       3.48977187      18.29409598  F
Ag      10.22122851       3.48977187      18.29409598  F
Ag       5.84070200       1.42477187      16.83392048  F
Ag      11.68140401       1.42477187      19.75427148  F
Ag      10.22122851       3.48977187      21.21444699  F
Ag       7.30087750       3.48977187      21.21444699  F
Ag       8.76105301       1.42477187      19.75427148  F
Ag       5.84070200       5.55477187      13.91356947  F
Ag      10.22122851       7.61977187      15.37374497  F
Ag       7.30087750       7.61977187      15.37374497  F
Ag       8.76105301       5.55477187      13.91356947  F
Ag       8.76105301       5.55477187      16.83392048  F
Ag       7.30087750       7.61977187      18.29409598  F
Ag      10.22122851       7.61977187      18.29409598  F
Ag       5.84070200       5.55477187      16.83392048  F
Ag      11.68140401       5.55477187      19.75427148  F
Ag      10.22122851       7.61977187      21.21444699  F
Ag       7.30087750       7.61977187      21.21444699  F
Ag       8.76105301       5.55477187      19.75427148  F
C        5.58871159       2.00243183      23.63019605  T
H        4.50625060       1.90545079      23.86836438  T
H        5.94126624       1.06241637      23.15315923  T
H        6.14419617       2.08814364      24.58491367  T
O        5.79350930       3.18189830      22.86720507  T
