45
Lattice="9.234961 0.0 0.0 7.387969 9.048377 0.0 0.0 0.0 37.587294" Properties=species:S:1:pos:R:3:move_mask:L:1 method=GFN1-xTB energy=-4450.362207594185 max_force=0.18291485141188374 pbc="T T T"
Ag       2.20084268       0.81039208      13.38816103  F
Ag       4.04783483       3.07248624      13.38816103  F
Ag       8.66531520       4.95756471      14.23119375  F
Ag       6.81832305       2.69547055      14.23119375  F
Ag      11.43580342       4.58054902      15.07422647  F
Ag       9.58881127       2.31845485      15.07422647  F
Ag       4.97133090       4.20353332      15.91725919  F
Ag       3.12433875       1.94143916      15.91725919  F
Ag       7.74181912       3.82651763      16.76029191  F
Ag       5.89482697       1.56442347      16.76029191  F
Ag      10.51230735       3.44950193      17.60332463  F
Ag       8.66531520       1.18740777      17.60332463  F
Ag       4.04783483       3.07248624      18.44635735  F
Ag       2.20084268       0.81039208      18.44635735  F
Ag       6.81832305       2.69547055      19.28939007  F
Ag       8.66531520       4.95756471      19.28939007  F
Ag       9.58881127       2.31845485      20.13242279  F
Ag      11.43580342       4.58054902      20.13242279  F
Ag       3.12433875       1.94143916      20.97545551  F
Ag       4.97133090       4.20353332      20.97545551  F
Ag       5.89482697       5.33458040      13.38816103  F
Ag       7.74181912       7.59667457      13.38816103  F
Ag      12.35929950       9.48175303      14.23119375  F
Ag      10.51230735       7.21965887      14.23119375  F
Ag      15.12978772       9.10473734      15.07422647  F
Ag      13.28279557       6.84264318      15.07422647  F
Ag       8.66531520       8.72772165      15.91725919  F
Ag       6.81832305       6.46562748      15.91725919  F
Ag      11.43580342       8.35070595      16.76029191  F
Ag       9.58881127       6.08861179      16.76029191  F
Ag      14.20629165       7.97369026      17.60332463  F
Ag      12.35929950       5.71159610      17.60332463  F
Ag       7.74181912       7.59667457      18.44635735  F
Ag       5.89482697       5.33458040      18.44635735  F
Ag      10.51230735       7.21965887      19.28939007  F
Ag      12.35929950       9.48175303      19.28939007  F
Ag      13.28279557       6.84264318      20.13242279  F
Ag      15.12978772       9.10473734      20.13242279  F
Ag       6.81832305       6.46562748      20.97545551  F
Ag       8.66531520       8.72772165      20.97545551  F
C        3.31532470      -0.03706626      23.51550417  T
H        2.27989882      -0.44759101      23.53288914  T
H        3.93986738      -0.81226943      23.03285555  T
H        3.62968007       0.03729650      24.57168303  T
O        3.41713948       1.18648574      22.89141438  T
