53
Lattice="11.681404 0.0 0.0 0.0 8.26 0.0 0.0 0.0 37.300878" Properties=species:S:1:pos:R:3:move_mask:L:1 method=CHGNet energy=-153.34603881835938 max_force=0.18454644083976746 pbc="T T T"
Ag      -0.00000001       1.03250000      13.54852560  F
Ag       4.38052650       3.09750000      15.00870110  F
Ag       1.46017549       3.09750000      15.00870110  F
Ag       2.92035099       1.03250000      13.54852560  F
Ag       2.92035099       1.03250000      16.46887660  F
Ag       1.46017549       3.09750000      17.92905211  F
Ag       4.38052650       3.09750000      17.92905211  F
Ag      -0.00000001       1.03250000      16.46887660  F
Ag       5.84070200       1.03250000      19.38922761  F
Ag       4.38052650       3.09750000      20.84940311  F
Ag       1.46017549       3.09750000      20.84940311  F
Ag       2.92035099       1.03250000      19.38922761  F
Ag      -0.00000001       5.16250000      13.54852560  F
Ag       4.38052650       7.22750000      15.00870110  F
Ag       1.46017549       7.22750000      15.00870110  F
Ag       2.92035099       5.16250000      13.54852560  F
Ag       2.92035099       5.16250000      16.46887660  F
Ag       1.46017549       7.22750000      17.92905211  F
Ag       4.38052650       7.22750000      17.92905211  F
Ag      -0.00000001       5.16250000      16.46887660  F
Ag       5.84070200       5.16250000      19.38922761  F
Ag       4.38052650       7.22750000      20.84940311  F
Ag       1.46017549       7.22750000      20.84940311  F
Ag       2.92035099       5.16250000      19.38922761  F
Ag       5.84070200       1.03250000      13.54852560  F
Ag      10.22122851       3.09750000      15.00870110  F
Ag       7.30087750       3.09750000      15.00870110  F
Ag       8.76105301       1.03250000      13.54852560  F
Ag       8.76105301       1.03250000      16.46887660  F
Ag       7.30087750       3.09750000      17.92905211  F
Ag      10.22122851       3.09750000      17.92905211  F
Ag       5.84070200       1.03250000      16.46887660  F
Ag      11.68140401       1.03250000      19.38922761  F
Ag      10.22122851       3.09750000      20.84940311  F
Ag       7.30087750       3.09750000      20.84940311  F
Ag       8.76105301       1.03250000      19.38922761  F
Ag       5.84070200       5.16250000      13.54852560  F
Ag      10.22122851       7.22750000      15.00870110  F
Ag       7.30087750       7.22750000      15.00870110  F
Ag       8.76105301       5.16250000      13.54852560  F
Ag       8.76105301       5.16250000      16.46887660  F
Ag       7.30087750       7.22750000      17.92905211  F
Ag      10.22122851       7.22750000      17.92905211  F
Ag       5.84070200       5.16250000      16.46887660  F
Ag      11.68140401       5.16250000      19.38922761  F
Ag      10.22122851       7.22750000      20.84940311  F
Ag       7.30087750       7.22750000      20.84940311  F
Ag       8.76105301       5.16250000      19.38922761  F
C        5.64129301       4.03711371      23.21466967  T
H        4.62420743       3.57172170      23.37857281  T
H        6.06099398       2.99591202      22.08499887  T
H        6.38919283       3.66914771      23.96756773  T
O        5.71169270       5.25602223      22.81343172  T
