45
Lattice="9.234961 0.0 0.0 7.387969 9.048377 0.0 0.0 0.0 37.587294" Properties=species:S:1:pos:R:3:move_mask:L:1 method=MACE-MP energy=-130.95394897460938 max_force=0.17960956692695618 pbc="T T T"
Ag       1.72723388       0.18850802      13.87433318  F
Ag       3.57422603       2.45060218      13.87433318  F
Ag       8.19170640       4.33568065      14.71736590  F
Ag       6.34471426       2.07358649      14.71736590  F
Ag      10.96219463       3.95866496      15.56039862  F
Ag       9.11520248       1.69657080      15.56039862  F
Ag       4.49772211       3.58164927      16.40343134  F
Ag       2.65072996       1.31955510      16.40343134  F
Ag       7.26821033       3.20463357      17.24646406  F
Ag       5.42121818       0.94253941      17.24646406  F
Ag      10.03869855       2.82761788      18.08949678  F
Ag       8.19170640       0.56552372      18.08949678  F
Ag       3.57422603       2.45060218      18.93252950  F
Ag       1.72723388       0.18850802      18.93252950  F
Ag       6.34471426       2.07358649      19.77556222  F
Ag       8.19170640       4.33568065      19.77556222  F
Ag       9.11520248       1.69657080      20.61859494  F
Ag      10.96219463       3.95866496      20.61859494  F
Ag       2.65072996       1.31955510      21.46162766  F
Ag       4.49772211       3.58164927      21.46162766  F
Ag       5.42121818       4.71269635      13.87433318  F
Ag       7.26821033       6.97479051      13.87433318  F
Ag      11.88569070       8.85986898      14.71736590  F
Ag      10.03869855       6.59777482      14.71736590  F
Ag      14.65617893       8.48285328      15.56039862  F
Ag      12.80918678       6.22075912      15.56039862  F
Ag       8.19170640       8.10583759      16.40343134  F
Ag       6.34471426       5.84374343      16.40343134  F
Ag      10.96219463       7.72882190      17.24646406  F
Ag       9.11520248       5.46672773      17.24646406  F
Ag      13.73268285       7.35180620      18.08949678  F
Ag      11.88569070       5.08971204      18.08949678  F
Ag       7.26821033       6.97479051      18.93252950  F
Ag       5.42121818       4.71269635      18.93252950  F
Ag      10.03869855       6.59777482      19.77556222  F
Ag      11.88569070       8.85986898      19.77556222  F
Ag      12.80918678       6.22075912      20.61859494  F
Ag      14.65617893       8.48285328      20.61859494  F
Ag       6.34471426       5.84374343      21.46162766  F
Ag       8.19170640       8.10583759      21.46162766  F
C        6.32459692       3.97363687      23.93558946  T
H        7.33357866       4.42052835      23.74460423  T
H        5.64039562       4.86007062      23.97030615  T
H        6.34418467       3.46457501      24.92116564  T
O        6.02083781       3.05109323      22.92878540  T
