53
Lattice="11.681404 0.0 0.0 0.0 8.26 0.0 0.0 0.0 37.300878" Properties=species:S:1:pos:R:3:move_mask:L:1 method=CHGNet energy=-154.4214630126953 max_force=0.16734135150909424 pbc="T T T"
Ag      -0.00000001       1.42477187      13.91587965  F
Ag       4.38052650       3.48977187      15.37605515  F
Ag       1.46017549       3.48977187      15.37605515  F
Ag       2.92035099       1.42477187      13.91587965  F
Ag       2.92035099       1.42477187      16.83623066  F
Ag       1.46017549       3.48977187      18.29640616  F
Ag       4.38052650       3.48977187      18.29640616  F
Ag      -0.00000001       1.42477187      16.83623066  F
Ag       5.84070200       1.42477187      19.75658166  F
Ag       4.38052650       3.48977187      21.21675717  F
Ag       1.46017549       3.48977187      21.21675717  F
Ag       2.92035099       1.42477187      19.75658166  F
Ag      -0.00000001       5.55477187      13.91587965  F
Ag       4.38052650       7.61977187      15.37605515  F
Ag       1.46017549       7.61977187      15.37605515  F
Ag       2.92035099       5.55477187      13.91587965  F
Ag       2.92035099       5.55477187      16.83623066  F
Ag       1.46017549       7.61977187      18.29640616  F
Ag       4.38052650       7.61977187      18.29640616  F
Ag      -0.00000001       5.55477187      16.83623066  F
Ag       5.84070200       5.55477187      19.75658166  F
Ag       4.38052650       7.61977187      21.21675717  F
Ag       1.46017549       7.61977187      21.21675717  F
Ag       2.92035099       5.55477187      19.75658166  F
Ag       5.84070200       1.42477187      13.91587965  F
Ag      10.22122851       3.48977187      15.37605515  F
Ag       7.30087750       3.48977187      15.37605515  F
Ag       8.76105301       1.42477187      13.91587965  F
Ag       8.76105301       1.42477187      16.83623066  F
Ag       7.30087750       3.48977187      18.29640616  F
Ag      10.22122851       3.48977187      18.29640616  F
Ag       5.84070200       1.42477187      16.83623066  F
Ag      11.68140401       1.42477187      19.75658166  F
Ag      10.22122851       3.48977187      21.21675717  F
Ag       7.30087750       3.48977187      21.21675717  F
Ag       8.76105301       1.42477187      19.75658166  F
Ag       5.84070200       5.55477187      13.91587965  F
Ag      10.22122851       7.61977187      15.37605515  F
Ag       7.30087750       7.61977187      15.37605515  F
Ag       8.76105301       5.55477187      13.91587965  F
Ag       8.76105301       5.55477187      16.83623066  F
Ag       7.30087750       7.61977187      18.29640616  F
Ag      10.22122851       7.61977187      18.29640616  F
Ag       5.84070200       5.55477187      16.83623066  F
Ag      11.68140401       5.55477187      19.75658166  F
Ag      10.22122851       7.61977187      21.21675717  F
Ag       7.30087750       7.61977187      21.21675717  F
Ag       8.76105301       5.55477187      19.75658166  F
C        5.46496773       2.10737709      23.63825697  T
H        6.21604365       1.29441159      23.54743022  T
H        5.39628841       2.34386480      24.71959758  T
H        4.49393878       1.68260556      23.30531982  T
O        5.81016404       3.28099394      22.92043228  T
