45
Lattice="9.234961 0.0 0.0 7.387969 9.048377 0.0 0.0 0.0 37.587294" Properties=species:S:1:pos:R:3:move_mask:L:1 method=MACE-MP energy=-130.93307495117188 max_force=0.15015992522239685 pbc="T T T"
Ag       1.69307646       0.18850802      13.46367373  F
Ag       3.54006861       2.45060218      13.46367373  F
Ag       8.15754899       4.33568065      14.30670645  F
Ag       6.31055684       2.07358649      14.30670645  F
Ag      10.92803721       3.95866496      15.14973917  F
Ag       9.08104506       1.69657080      15.14973917  F
Ag       4.46356469       3.58164927      15.99277189  F
Ag       2.61657254       1.31955510      15.99277189  F
Ag       7.23405291       3.20463357      16.83580461  F
Ag       5.38706076       0.94253941      16.83580461  F
Ag      10.00454113       2.82761788      17.67883733  F
Ag       8.15754899       0.56552372      17.67883733  F
Ag       3.54006861       2.45060218      18.52187005  F
Ag       1.69307646       0.18850802      18.52187005  F
Ag       6.31055684       2.07358649      19.36490277  F
Ag       8.15754899       4.33568065      19.36490277  F
Ag       9.08104506       1.69657080      20.20793549  F
Ag      10.92803721       3.95866496      20.20793549  F
Ag       2.61657254       1.31955510      21.05096821  F
Ag       4.46356469       3.58164927      21.05096821  F
Ag       5.38706076       4.71269635      13.46367373  F
Ag       7.23405291       6.97479051      13.46367373  F
Ag      11.85153328       8.85986898      14.30670645  F
Ag      10.00454113       6.59777482      14.30670645  F
Ag      14.62202151       8.48285328      15.14973917  F
Ag      12.77502936       6.22075912      15.14973917  F
Ag       8.15754899       8.10583759      15.99277189  F
Ag       6.31055684       5.84374343      15.99277189  F
Ag      10.92803721       7.72882190      16.83580461  F
Ag       9.08104506       5.46672773      16.83580461  F
Ag      13.69852543       7.35180620      17.67883733  F
Ag      11.85153328       5.08971204      17.67883733  F
Ag       7.23405291       6.97479051      18.52187005  F
Ag       5.38706076       4.71269635      18.52187005  F
Ag      10.00454113       6.59777482      19.36490277  F
Ag      11.85153328       8.85986898      19.36490277  F
Ag      12.77502936       6.22075912      20.20793549  F
Ag      14.62202151       8.48285328      20.20793549  F
Ag       6.31055684       5.84374343      21.05096821  F
Ag       8.15754899       8.10583759      21.05096821  F
C        5.52367951       2.74402513      23.62833277  T
H        4.43518544       2.77731501      23.84664262  T
H        5.97435151       1.96763762      24.26706787  T
H        5.90496251       3.74165876      23.93297896  T
O        5.80289782       2.42625350      22.29881973  T
