45
Lattice="9.234961 0.0 0.0 7.387969 9.048377 0.0 0.0 0.0 37.587294" Properties=species:S:1:pos:R:3:move_mask:L:1 method=CHGNet energy=-133.1698760986328 max_force=0.17292045056819916 pbc="T T T"
Ag       2.09644206       0.18850802      13.02688572  F
Ag       3.94343421       2.45060218      13.02688572  F
Ag       8.56091458       4.33568065      13.86991844  F
Ag       6.71392243       2.07358649      13.86991844  F
Ag      11.33140281       3.95866496      14.71295116  F
Ag       9.48441066       1.69657080      14.71295116  F
Ag       4.86693028       3.58164927      15.55598388  F
Ag       3.01993813       1.31955510      15.55598388  F
Ag       7.63741851       3.20463357      16.39901659  F
Ag       5.79042636       0.94253941      16.39901659  F
Ag      10.40790673       2.82761788      17.24204931  F
Ag       8.56091458       0.56552372      17.24204931  F
Ag       3.94343421       2.45060218      18.08508203  F
Ag       2.09644206       0.18850802      18.08508203  F
Ag       6.71392243       2.07358649      18.92811475  F
Ag       8.56091458       4.33568065      18.92811475  F
Ag       9.48441066       1.69657080      19.77114747  F
Ag      11.33140281       3.95866496      19.77114747  F
Ag       3.01993813       1.31955510      20.61418019  F
Ag       4.86693028       3.58164927      20.61418019  F
Ag       5.79042636       4.71269635      13.02688572  F
Ag       7.63741851       6.97479051      13.02688572  F
Ag      12.25489888       8.85986898      13.86991844  F
Ag      10.40790673       6.59777482      13.86991844  F
Ag      15.02538711       8.48285328      14.71295116  F
Ag      13.17839496       6.22075912      14.71295116  F
Ag       8.56091458       8.10583759      15.55598388  F
Ag       6.71392243       5.84374343      15.55598388  F
Ag      11.33140281       7.72882190      16.39901659  F
Ag       9.48441066       5.46672773      16.39901659  F
Ag      14.10189103       7.35180620      17.24204931  F
Ag      12.25489888       5.08971204      17.24204931  F
Ag       7.63741851       6.97479051      18.08508203  F
Ag       5.79042636       4.71269635      18.08508203  F
Ag      10.40790673       6.59777482      18.92811475  F
Ag      12.25489888       8.85986898      18.92811475  F
Ag      13.17839496       6.22075912      19.77114747  F
Ag      15.02538711       8.48285328      19.77114747  F
Ag       6.71392243       5.84374343      20.61418019  F
Ag       8.56091458       8.10583759      20.61418019  F
C        4.03726756       2.40004035      23.60378765  T
H        2.96881122       2.24594774      23.86546058  T
H        4.63413808       1.67440093      24.19524746  T
H        4.36663238       3.41262776      23.92306526  T
O        4.32030505       2.13990915      22.24664723  T
