45
Lattice="9.234961 0.0 0.0 7.387969 9.048377 0.0 0.0 0.0 37.587294" Properties=species:S:1:pos:R:3:move_mask:L:1 method=CHGNet energy=-132.51092529296875 max_force=0.17160014808177948 pbc="T T T"
Ag       0.88753859       0.18850802      14.27750455  F
Ag       2.73453074       2.45060218      14.27750455  F
Ag       7.35201112       4.33568065      15.12053727  F
Ag       5.50501897       2.07358649      15.12053727  F
Ag      10.12249934       3.95866496      15.96356999  F
Ag       8.27550719       1.69657080      15.96356999  F
Ag       3.65802682       3.58164927      16.80660271  F
Ag       1.81103467       1.31955510      16.80660271  F
Ag       6.42851504       3.20463357      17.64963543  F
Ag       4.58152289       0.94253941      17.64963543  F
Ag       9.19900327       2.82761788      18.49266815  F
Ag       7.35201112       0.56552372      18.49266815  F
Ag       2.73453074       2.45060218      19.33570087  F
Ag       0.88753859       0.18850802      19.33570087  F
Ag       5.50501897       2.07358649      20.17873359  F
Ag       7.35201112       4.33568065      20.17873359  F
Ag       8.27550719       1.69657080      21.02176631  F
Ag      10.12249934       3.95866496      21.02176631  F
Ag       1.81103467       1.31955510      21.86479903  F
Ag       3.65802682       3.58164927      21.86479903  F
Ag       4.58152289       4.71269635      14.27750455  F
Ag       6.42851504       6.97479051      14.27750455  F
Ag      11.04599542       8.85986898      15.12053727  F
Ag       9.19900327       6.59777482      15.12053727  F
Ag      13.81648364       8.48285328      15.96356999  F
Ag      11.96949149       6.22075912      15.96356999  F
Ag       7.35201112       8.10583759      16.80660271  F
Ag       5.50501897       5.84374343      16.80660271  F
Ag      10.12249934       7.72882190      17.64963543  F
Ag       8.27550719       5.46672773      17.64963543  F
Ag      12.89298757       7.35180620      18.49266815  F
Ag      11.04599542       5.08971204      18.49266815  F
Ag       6.42851504       6.97479051      19.33570087  F
Ag       4.58152289       4.71269635      19.33570087  F
Ag       9.19900327       6.59777482      20.17873359  F
Ag      11.04599542       8.85986898      20.17873359  F
Ag      11.96949149       6.22075912      21.02176631  F
Ag      13.81648364       8.48285328      21.02176631  F
Ag       5.50501897       5.84374343      21.86479903  F
Ag       7.35201112       8.10583759      21.86479903  F
C        8.92519060       2.36219675      24.36149930  T
H        8.28398049       1.53725752      23.95003313  T
H        9.74607065       2.52063749      22.02297150  T
H        9.85176097       2.05265876      24.91164421  T
O        8.64029727       3.54721256      24.17942063  T
