53
Lattice="11.681404 0.0 0.0 0.0 8.26 0.0 0.0 0.0 37.300878" Properties=species:S:1:pos:R:3:move_mask:L:1 method=MACE-MP energy=-151.1756134033203 max_force=0.15559224784374237 pbc="T T T"
Ag      -0.00000001       1.94102187      14.27861335  F
Ag       4.38052650       4.00602187      15.73878885  F
Ag       1.46017549       4.00602187      15.73878885  F
Ag       2.92035099       1.94102187      14.27861335  F
Ag       2.92035099       1.94102187      17.19896435  F
Ag       1.46017549       4.00602187      18.65913986  F
Ag       4.38052650       4.00602187      18.65913986  F
Ag      -0.00000001       1.94102187      17.19896435  F
Ag       5.84070200       1.94102187      20.11931536  F
Ag       4.38052650       4.00602187      21.57949086  F
Ag       1.46017549       4.00602187      21.57949086  F
Ag       2.92035099       1.94102187      20.11931536  F
Ag      -0.00000001       6.07102187      14.27861335  F
Ag       4.38052650       8.13602187      15.73878885  F
Ag       1.46017549       8.13602187      15.73878885  F
Ag       2.92035099       6.07102187      14.27861335  F
Ag       2.92035099       6.07102187      17.19896435  F
Ag       1.46017549       8.13602187      18.65913986  F
Ag       4.38052650       8.13602187      18.65913986  F
Ag      -0.00000001       6.07102187      17.19896435  F
Ag       5.84070200       6.07102187      20.11931536  F
Ag       4.38052650       8.13602187      21.57949086  F
Ag       1.46017549       8.13602187      21.57949086  F
Ag       2.92035099       6.07102187      20.11931536  F
Ag       5.84070200       1.94102187      14.27861335  F
Ag      10.22122851       4.00602187      15.73878885  F
Ag       7.30087750       4.00602187      15.73878885  F
Ag       8.76105301       1.94102187      14.27861335  F
Ag       8.76105301       1.94102187      17.19896435  F
Ag       7.30087750       4.00602187      18.65913986  F
Ag      10.22122851       4.00602187      18.65913986  F
Ag       5.84070200       1.94102187      17.19896435  F
Ag      11.68140401       1.94102187      20.11931536  F
Ag      10.22122851       4.00602187      21.57949086  F
Ag       7.30087750       4.00602187      21.57949086  F
Ag       8.76105301       1.94102187      20.11931536  F
Ag       5.84070200       6.07102187      14.27861335  F
Ag      10.22122851       8.13602187      15.73878885  F
Ag       7.30087750       8.13602187      15.73878885  F
Ag       8.76105301       6.07102187      14.27861335  F
Ag       8.76105301       6.07102187      17.19896435  F
Ag       7.30087750       8.13602187      18.65913986  F
Ag      10.22122851       8.13602187      18.65913986  F
Ag       5.84070200       6.07102187      17.19896435  F
Ag      11.68140401       6.07102187      20.11931536  F
Ag      10.22122851       8.13602187      21.57949086  F
Ag       7.30087750       8.13602187      21.57949086  F
Ag       8.76105301       6.07102187      20.11931536  F
C        5.90781346       1.85187646      24.05362632  T
H        5.02880793       1.38709070      24.53219081  T
H        5.84386202       0.93501318      21.69625940  T
H        6.87010358       1.30753327      24.10044395  T
O        5.84163642       2.99992651      23.58269405  T
