53
Lattice="11.681404 0.0 0.0 0.0 8.26 0.0 0.0 0.0 37.300878" Properties=species:S:1:pos:R:3:move_mask:L:1 method=CHGNet energy=-147.07083129882812 max_force=0.1680409014225006 pbc="T T T"
Ag      -0.00000001       1.94102187      14.27861335  F
Ag       4.38052650       4.00602187      15.73878885  F
Ag       1.46017549       4.00602187      15.73878885  F
Ag       2.92035099       1.94102187      14.27861335  F
Ag       2.92035099       1.94102187      17.19896435  F
Ag       1.46017549       4.00602187      18.65913986  F
Ag       4.38052650       4.00602187      18.65913986  F
Ag      -0.00000001       1.94102187      17.19896435  F
Ag       5.84070200       1.94102187      20.11931536  F
Ag       4.38052650       4.00602187      21.57949086  F
Ag       1.46017549       4.00602187      21.57949086  F
Ag       2.92035099       1.94102187      20.11931536  F
Ag      -0.00000001       6.07102187      14.27861335  F
Ag       4.38052650       8.13602187      15.73878885  F
Ag       1.46017549       8.13602187      15.73878885  F
Ag       2.92035099       6.07102187      14.27861335  F
Ag       2.92035099       6.07102187      17.19896435  F
Ag       1.46017549       8.13602187      18.65913986  F
Ag       4.38052650       8.13602187      18.65913986  F
Ag      -0.00000001       6.07102187      17.19896435  F
Ag       5.84070200       6.07102187      20.11931536  F
Ag       4.38052650       8.13602187      21.57949086  F
Ag       1.46017549       8.13602187      21.57949086  F
Ag       2.92035099       6.07102187      20.11931536  F
Ag       5.84070200       1.94102187      14.27861335  F
Ag      10.22122851       4.00602187      15.73878885  F
Ag       7.30087750       4.00602187      15.73878885  F
Ag       8.76105301       1.94102187      14.27861335  F
Ag       8.76105301       1.94102187      17.19896435  F
Ag       7.30087750       4.00602187      18.65913986  F
Ag      10.22122851       4.00602187      18.65913986  F
Ag       5.84070200       1.94102187      17.19896435  F
Ag      11.68140401       1.94102187      20.11931536  F
Ag      10.22122851       4.00602187      21.57949086  F
Ag       7.30087750       4.00602187      21.57949086  F
Ag       8.76105301       1.94102187      20.11931536  F
Ag       5.84070200       6.07102187      14.27861335  F
Ag      10.22122851       8.13602187      15.73878885  F
Ag       7.30087750       8.13602187      15.73878885  F
Ag       8.76105301       6.07102187      14.27861335  F
Ag       8.76105301       6.07102187      17.19896435  F
Ag       7.30087750       8.13602187      18.65913986  F
Ag      10.22122851       8.13602187      18.65913986  F
Ag       5.84070200       6.07102187      17.19896435  F
Ag      11.68140401       6.07102187      20.11931536  F
Ag      10.22122851       8.13602187      21.57949086  F
Ag       7.30087750       8.13602187      21.57949086  F
Ag       8.76105301       6.07102187      20.11931536  F
C        5.60871326       1.00223011      23.02739057  T
H        4.77209807       0.24179214      22.02490974  T
H        5.89575559      -0.17124717      20.10853234  T
H        5.93427699       0.33832883      23.85860103  T
O        5.20376318       2.15891037      23.24620796  T
