45
Lattice="9.234961 0.0 0.0 7.387969 9.048377 0.0 0.0 0.0 37.587294" Properties=species:S:1:pos:R:3:move_mask:L:1 method=GFN1-xTB energy=-4451.090767078744 max_force=0.18085542319373835 pbc="T T T"
Ag       1.69307646       0.18850802      13.68197180  F
Ag       3.54006861       2.45060218      13.68197180  F
Ag       8.15754899       4.33568065      14.52500451  F
Ag       6.31055684       2.07358649      14.52500451  F
Ag      10.92803721       3.95866496      15.36803723  F
Ag       9.08104506       1.69657080      15.36803723  F
Ag       4.46356469       3.58164927      16.21106995  F
Ag       2.61657254       1.31955510      16.21106995  F
Ag       7.23405291       3.20463357      17.05410267  F
Ag       5.38706076       0.94253941      17.05410267  F
Ag      10.00454113       2.82761788      17.89713539  F
Ag       8.15754899       0.56552372      17.89713539  F
Ag       3.54006861       2.45060218      18.74016811  F
Ag       1.69307646       0.18850802      18.74016811  F
Ag       6.31055684       2.07358649      19.58320083  F
Ag       8.15754899       4.33568065      19.58320083  F
Ag       9.08104506       1.69657080      20.42623355  F
Ag      10.92803721       3.95866496      20.42623355  F
Ag       2.61657254       1.31955510      21.26926627  F
Ag       4.46356469       3.58164927      21.26926627  F
Ag       5.38706076       4.71269635      13.68197180  F
Ag       7.23405291       6.97479051      13.68197180  F
Ag      11.85153328       8.85986898      14.52500451  F
Ag      10.00454113       6.59777482      14.52500451  F
Ag      14.62202151       8.48285328      15.36803723  F
Ag      12.77502936       6.22075912      15.36803723  F
Ag       8.15754899       8.10583759      16.21106995  F
Ag       6.31055684       5.84374343      16.21106995  F
Ag      10.92803721       7.72882190      17.05410267  F
Ag       9.08104506       5.46672773      17.05410267  F
Ag      13.69852543       7.35180620      17.89713539  F
Ag      11.85153328       5.08971204      17.89713539  F
Ag       7.23405291       6.97479051      18.74016811  F
Ag       5.38706076       4.71269635      18.74016811  F
Ag      10.00454113       6.59777482      19.58320083  F
Ag      11.85153328       8.85986898      19.58320083  F
Ag      12.77502936       6.22075912      20.42623355  F
Ag      14.62202151       8.48285328      20.42623355  F
Ag       6.31055684       5.84374343      21.26926627  F
Ag       8.15754899       8.10583759      21.26926627  F
C        7.12367618       2.06228784      23.08174069  T
H        8.10420204       2.06295299      23.58586945  T
H        6.81456399       3.12130878      23.01840109  T
H        6.39058801       1.53637237      23.70787608  T
O        7.19567824       1.49340273      21.81244573  T
