53
Lattice="11.681404 0.0 0.0 0.0 8.26 0.0 0.0 0.0 37.300878" Properties=species:S:1:pos:R:3:move_mask:L:1 method=MACE-MP energy=-152.0518341064453 max_force=0.13419513404369354 pbc="T T T"
Ag      -0.00000001       1.03250000      13.45652225  F
Ag       4.38052650       3.09750000      14.91669775  F
Ag       1.46017549       3.09750000      14.91669775  F
Ag       2.92035099       1.03250000      13.45652225  F
Ag       2.92035099       1.03250000      16.37687325  F
Ag       1.46017549       3.09750000      17.83704876  F
Ag       4.38052650       3.09750000      17.83704876  F
Ag      -0.00000001       1.03250000      16.37687325  F
Ag       5.84070200       1.03250000      19.29722426  F
Ag       4.38052650       3.09750000      20.75739976  F
Ag       1.46017549       3.09750000      20.75739976  F
Ag       2.92035099       1.03250000      19.29722426  F
Ag      -0.00000001       5.16250000      13.45652225  F
Ag       4.38052650       7.22750000      14.91669775  F
Ag       1.46017549       7.22750000      14.91669775  F
Ag       2.92035099       5.16250000      13.45652225  F
Ag       2.92035099       5.16250000      16.37687325  F
Ag       1.46017549       7.22750000      17.83704876  F
Ag       4.38052650       7.22750000      17.83704876  F
Ag      -0.00000001       5.16250000      16.37687325  F
Ag       5.84070200       5.16250000      19.29722426  F
Ag       4.38052650       7.22750000      20.75739976  F
Ag       1.46017549       7.22750000      20.75739976  F
Ag       2.92035099       5.16250000      19.29722426  F
Ag       5.84070200       1.03250000      13.45652225  F
Ag      10.22122851       3.09750000      14.91669775  F
Ag       7.30087750       3.09750000      14.91669775  F
Ag       8.76105301       1.03250000      13.45652225  F
Ag       8.76105301       1.03250000      16.37687325  F
Ag       7.30087750       3.09750000      17.83704876  F
Ag      10.22122851       3.09750000      17.83704876  F
Ag       5.84070200       1.03250000      16.37687325  F
Ag      11.68140401       1.03250000      19.29722426  F
Ag      10.22122851       3.09750000      20.75739976  F
Ag       7.30087750       3.09750000      20.75739976  F
Ag       8.76105301       1.03250000      19.29722426  F
Ag       5.84070200       5.16250000      13.45652225  F
Ag      10.22122851       7.22750000      14.91669775  F
Ag       7.30087750       7.22750000      14.91669775  F
Ag       8.76105301       5.16250000      13.45652225  F
Ag       8.76105301       5.16250000      16.37687325  F
Ag       7.30087750       7.22750000      17.83704876  F
Ag      10.22122851       7.22750000      17.83704876  F
Ag       5.84070200       5.16250000      16.37687325  F
Ag      11.68140401       5.16250000      19.29722426  F
Ag      10.22122851       7.22750000      20.75739976  F
Ag       7.30087750       7.22750000      20.75739976  F
Ag       8.76105301       5.16250000      19.29722426  F
C        5.20135803       1.95733894      23.53143697  T
H        6.15281891       1.94894253      24.09610758  T
H        4.67556384       2.91587557      23.71228269  T
H        4.55260501       1.13721502      23.90471817  T
O        5.49219814       1.79512599      22.17371365  T
