53
Lattice="11.681404 0.0 0.0 0.0 8.26 0.0 0.0 0.0 37.300878" Properties=species:S:1:pos:R:3:move_mask:L:1 method=CHGNet energy=-154.2796173095703 max_force=0.19156697392463684 pbc="T T T"
Ag      -0.00000001       1.03250000      13.45652225  F
Ag       4.38052650       3.09750000      14.91669775  F
Ag       1.46017549       3.09750000      14.91669775  F
Ag       2.92035099       1.03250000      13.45652225  F
Ag       2.92035099       1.03250000      16.37687325  F
Ag       1.46017549       3.09750000      17.83704876  F
Ag       4.38052650       3.09750000      17.83704876  F
Ag      -0.00000001       1.03250000      16.37687325  F
Ag       5.84070200       1.03250000      19.29722426  F
Ag       4.38052650       3.09750000      20.75739976  F
Ag       1.46017549       3.09750000      20.75739976  F
Ag       2.92035099       1.03250000      19.29722426  F
Ag      -0.00000001       5.16250000      13.45652225  F
Ag       4.38052650       7.22750000      14.91669775  F
Ag       1.46017549       7.22750000      14.91669775  F
Ag       2.92035099       5.16250000      13.45652225  F
Ag       2.92035099       5.16250000      16.37687325  F
Ag       1.46017549       7.22750000      17.83704876  F
Ag       4.38052650       7.22750000      17.83704876  F
Ag      -0.00000001       5.16250000      16.37687325  F
Ag       5.84070200       5.16250000      19.29722426  F
Ag       4.38052650       7.22750000      20.75739976  F
Ag       1.46017549       7.22750000      20.75739976  F
Ag       2.92035099       5.16250000      19.29722426  F
Ag       5.84070200       1.03250000      13.45652225  F
Ag      10.22122851       3.09750000      14.91669775  F
Ag       7.30087750       3.09750000      14.91669775  F
Ag       8.76105301       1.03250000      13.45652225  F
Ag       8.76105301       1.03250000      16.37687325  F
Ag       7.30087750       3.09750000      17.83704876  F
Ag      10.22122851       3.09750000      17.83704876  F
Ag       5.84070200       1.03250000      16.37687325  F
Ag      11.68140401       1.03250000      19.29722426  F
Ag      10.22122851       3.09750000      20.75739976  F
Ag       7.30087750       3.09750000      20.75739976  F
Ag       8.76105301       1.03250000      19.29722426  F
Ag       5.84070200       5.16250000      13.45652225  F
Ag      10.22122851       7.22750000      14.91669775  F
Ag       7.30087750       7.22750000      14.91669775  F
Ag       8.76105301       5.16250000      13.45652225  F
Ag       8.76105301       5.16250000      16.37687325  F
Ag       7.30087750       7.22750000      17.83704876  F
Ag      10.22122851       7.22750000      17.83704876  F
Ag       5.84070200       5.16250000      16.37687325  F
Ag      11.68140401       5.16250000      19.29722426  F
Ag      10.22122851       7.22750000      20.75739976  F
Ag       7.30087750       7.22750000      20.75739976  F
Ag       8.76105301       5.16250000      19.29722426  F
C        5.30203184       2.05616397      23.47221280  T
H        6.11879405       1.95230680      24.20683176  T
H        4.72475428       2.96953990      23.71827185  T
H        4.64009117       1.17800181      23.63442445  T
O        5.77537155       2.08191106      22.15287574  T
