45
Lattice="9.234961 0.0 0.0 7.387969 9.048377 0.0 0.0 0.0 37.587294" Properties=species:S:1:pos:R:3:move_mask:L:1 method=GFN1-xTB energy=-4450.2894920398385 max_force=0.12067953407173353 pbc="T T T"
Ag       1.90592028       0.44918739      13.02695634  F
Ag       3.75291243       2.71128155      13.02695634  F
Ag       8.37039280       4.59636002      13.86998906  F
Ag       6.52340065       2.33426586      13.86998906  F
Ag      11.14088102       4.21934433      14.71302178  F
Ag       9.29388887       1.95725016      14.71302178  F
Ag       4.67640850       3.84232863      15.55605450  F
Ag       2.82941635       1.58023447      15.55605450  F
Ag       7.44689672       3.46531294      16.39908722  F
Ag       5.59990458       1.20321878      16.39908722  F
Ag      10.21738495       3.08829724      17.24211994  F
Ag       8.37039280       0.82620308      17.24211994  F
Ag       3.75291243       2.71128155      18.08515266  F
Ag       1.90592028       0.44918739      18.08515266  F
Ag       6.52340065       2.33426586      18.92818538  F
Ag       8.37039280       4.59636002      18.92818538  F
Ag       9.29388887       1.95725016      19.77121810  F
Ag      11.14088102       4.21934433      19.77121810  F
Ag       2.82941635       1.58023447      20.61425082  F
Ag       4.67640850       3.84232863      20.61425082  F
Ag       5.59990458       4.97337571      13.02695634  F
Ag       7.44689672       7.23546988      13.02695634  F
Ag      12.06437710       9.12054834      13.86998906  F
Ag      10.21738495       6.85845418      13.86998906  F
Ag      14.83486532       8.74353265      14.71302178  F
Ag      12.98787317       6.48143849      14.71302178  F
Ag       8.37039280       8.36651696      15.55605450  F
Ag       6.52340065       6.10442279      15.55605450  F
Ag      11.14088102       7.98950126      16.39908722  F
Ag       9.29388887       5.72740710      16.39908722  F
Ag      13.91136925       7.61248557      17.24211994  F
Ag      12.06437710       5.35039141      17.24211994  F
Ag       7.44689672       7.23546988      18.08515266  F
Ag       5.59990458       4.97337571      18.08515266  F
Ag      10.21738495       6.85845418      18.92818538  F
Ag      12.06437710       9.12054834      18.92818538  F
Ag      12.98787317       6.48143849      19.77121810  F
Ag      14.83486532       8.74353265      19.77121810  F
Ag       6.52340065       6.10442279      20.61425082  F
Ag       8.37039280       8.36651696      20.61425082  F
C        3.53583432       0.95660768      23.86660256  T
H        4.61297990       1.06478832      24.08150012  T
H        2.99861120       1.63724760      24.55060126  T
H        3.24455933      -0.07674083      24.12184594  T
O        3.26484302       1.24793894      22.55123081  T
