53
Lattice="11.681404 0.0 0.0 0.0 8.26 0.0 0.0 0.0 37.300878" Properties=species:S:1:pos:R:3:move_mask:L:1 method=CHGNet energy=-153.7877960205078 max_force=0.18981552124023438 pbc="T T T"
Ag      -0.00000001       1.03250000      14.28092353  F
Ag       4.38052650       3.09750000      15.74109903  F
Ag       1.46017549       3.09750000      15.74109903  F
Ag       2.92035099       1.03250000      14.28092353  F
Ag       2.92035099       1.03250000      17.20127453  F
Ag       1.46017549       3.09750000      18.66145004  F
Ag       4.38052650       3.09750000      18.66145004  F
Ag      -0.00000001       1.03250000      17.20127453  F
Ag       5.84070200       1.03250000      20.12162554  F
Ag       4.38052650       3.09750000      21.58180104  F
Ag       1.46017549       3.09750000      21.58180104  F
Ag       2.92035099       1.03250000      20.12162554  F
Ag      -0.00000001       5.16250000      14.28092353  F
Ag       4.38052650       7.22750000      15.74109903  F
Ag       1.46017549       7.22750000      15.74109903  F
Ag       2.92035099       5.16250000      14.28092353  F
Ag       2.92035099       5.16250000      17.20127453  F
Ag       1.46017549       7.22750000      18.66145004  F
Ag       4.38052650       7.22750000      18.66145004  F
Ag      -0.00000001       5.16250000      17.20127453  F
Ag       5.84070200       5.16250000      20.12162554  F
Ag       4.38052650       7.22750000      21.58180104  F
Ag       1.46017549       7.22750000      21.58180104  F
Ag       2.92035099       5.16250000      20.12162554  F
Ag       5.84070200       1.03250000      14.28092353  F
Ag      10.22122851       3.09750000      15.74109903  F
Ag       7.30087750       3.09750000      15.74109903  F
Ag       8.76105301       1.03250000      14.28092353  F
Ag       8.76105301       1.03250000      17.20127453  F
Ag       7.30087750       3.09750000      18.66145004  F
Ag      10.22122851       3.09750000      18.66145004  F
Ag       5.84070200       1.03250000      17.20127453  F
Ag      11.68140401       1.03250000      20.12162554  F
Ag      10.22122851       3.09750000      21.58180104  F
Ag       7.30087750       3.09750000      21.58180104  F
Ag       8.76105301       1.03250000      20.12162554  F
Ag       5.84070200       5.16250000      14.28092353  F
Ag      10.22122851       7.22750000      15.74109903  F
Ag       7.30087750       7.22750000      15.74109903  F
Ag       8.76105301       5.16250000      14.28092353  F
Ag       8.76105301       5.16250000      17.20127453  F
Ag       7.30087750       7.22750000      18.66145004  F
Ag      10.22122851       7.22750000      18.66145004  F
Ag       5.84070200       5.16250000      17.20127453  F
Ag      11.68140401       5.16250000      20.12162554  F
Ag      10.22122851       7.22750000      21.58180104  F
Ag       7.30087750       7.22750000      21.58180104  F
Ag       8.76105301       5.16250000      20.12162554  F
C        3.93698579       1.65926652      23.73090096  T
H        2.83957366       1.81402476      23.60703485  T
H        4.50258241       2.46217926      24.26013565  T
H        5.85806724       3.10852565      20.32796876  T
O        4.48800446       0.56236572      23.48448148  T
