45
Lattice="9.234961 0.0 0.0 7.387969 9.048377 0.0 0.0 0.0 37.587294" Properties=species:S:1:pos:R:3:move_mask:L:1 method=GFN1-xTB energy=-4451.10244984875 max_force=0.15966799210823795 pbc="T T T"
Ag       2.20084268       0.81039208      13.82671704  F
Ag       4.04783483       3.07248624      13.82671704  F
Ag       8.66531520       4.95756471      14.66974976  F
Ag       6.81832305       2.69547055      14.66974976  F
Ag      11.43580342       4.58054902      15.51278248  F
Ag       9.58881127       2.31845485      15.51278248  F
Ag       4.97133090       4.20353332      16.35581520  F
Ag       3.12433875       1.94143916      16.35581520  F
Ag       7.74181912       3.82651763      17.19884792  F
Ag       5.89482697       1.56442347      17.19884792  F
Ag      10.51230735       3.44950193      18.04188064  F
Ag       8.66531520       1.18740777      18.04188064  F
Ag       4.04783483       3.07248624      18.88491336  F
Ag       2.20084268       0.81039208      18.88491336  F
Ag       6.81832305       2.69547055      19.72794608  F
Ag       8.66531520       4.95756471      19.72794608  F
Ag       9.58881127       2.31845485      20.57097880  F
Ag      11.43580342       4.58054902      20.57097880  F
Ag       3.12433875       1.94143916      21.41401152  F
Ag       4.97133090       4.20353332      21.41401152  F
Ag       5.89482697       5.33458040      13.82671704  F
Ag       7.74181912       7.59667457      13.82671704  F
Ag      12.35929950       9.48175303      14.66974976  F
Ag      10.51230735       7.21965887      14.66974976  F
Ag      15.12978772       9.10473734      15.51278248  F
Ag      13.28279557       6.84264318      15.51278248  F
Ag       8.66531520       8.72772165      16.35581520  F
Ag       6.81832305       6.46562748      16.35581520  F
Ag      11.43580342       8.35070595      17.19884792  F
Ag       9.58881127       6.08861179      17.19884792  F
Ag      14.20629165       7.97369026      18.04188064  F
Ag      12.35929950       5.71159610      18.04188064  F
Ag       7.74181912       7.59667457      18.88491336  F
Ag       5.89482697       5.33458040      18.88491336  F
Ag      10.51230735       7.21965887      19.72794608  F
Ag      12.35929950       9.48175303      19.72794608  F
Ag      13.28279557       6.84264318      20.57097880  F
Ag      15.12978772       9.10473734      20.57097880  F
Ag       6.81832305       6.46562748      21.41401152  F
Ag       8.66531520       8.72772165      21.41401152  F
C        4.18505811      -0.44183725      23.29296418  T
H        5.07153251       0.17447581      23.52191018  T
H        3.37823554      -0.13064258      23.98003224  T
H        4.45290328      -1.48259771      23.53326674  T
O        3.78970177      -0.31247840      21.95292604  T
