53
Lattice="11.681404 0.0 0.0 0.0 8.26 0.0 0.0 0.0 37.300878" Properties=species:S:1:pos:R:3:move_mask:L:1 method=MACE-MP energy=-150.85357666015625 max_force=0.18133917450904846 pbc="T T T"
Ag      -0.00000001       1.03250000      14.27861335  F
Ag       4.38052650       3.09750000      15.73878885  F
Ag       1.46017549       3.09750000      15.73878885  F
Ag       2.92035099       1.03250000      14.27861335  F
Ag       2.92035099       1.03250000      17.19896435  F
Ag       1.46017549       3.09750000      18.65913986  F
Ag       4.38052650       3.09750000      18.65913986  F
Ag      -0.00000001       1.03250000      17.19896435  F
Ag       5.84070200       1.03250000      20.11931536  F
Ag       4.38052650       3.09750000      21.57949086  F
Ag       1.46017549       3.09750000      21.57949086  F
Ag       2.92035099       1.03250000      20.11931536  F
Ag      -0.00000001       5.16250000      14.27861335  F
Ag       4.38052650       7.22750000      15.73878885  F
Ag       1.46017549       7.22750000      15.73878885  F
Ag       2.92035099       5.16250000      14.27861335  F
Ag       2.92035099       5.16250000      17.19896435  F
Ag       1.46017549       7.22750000      18.65913986  F
Ag       4.38052650       7.22750000      18.65913986  F
Ag      -0.00000001       5.16250000      17.19896435  F
Ag       5.84070200       5.16250000      20.11931536  F
Ag       4.38052650       7.22750000      21.57949086  F
Ag       1.46017549       7.22750000      21.57949086  F
Ag       2.92035099       5.16250000      20.11931536  F
Ag       5.84070200       1.03250000      14.27861335  F
Ag      10.22122851       3.09750000      15.73878885  F
Ag       7.30087750       3.09750000      15.73878885  F
Ag       8.76105301       1.03250000      14.27861335  F
Ag       8.76105301       1.03250000      17.19896435  F
Ag       7.30087750       3.09750000      18.65913986  F
Ag      10.22122851       3.09750000      18.65913986  F
Ag       5.84070200       1.03250000      17.19896435  F
Ag      11.68140401       1.03250000      20.11931536  F
Ag      10.22122851       3.09750000      21.57949086  F
Ag       7.30087750       3.09750000      21.57949086  F
Ag       8.76105301       1.03250000      20.11931536  F
Ag       5.84070200       5.16250000      14.27861335  F
Ag      10.22122851       7.22750000      15.73878885  F
Ag       7.30087750       7.22750000      15.73878885  F
Ag       8.76105301       5.16250000      14.27861335  F
Ag       8.76105301       5.16250000      17.19896435  F
Ag       7.30087750       7.22750000      18.65913986  F
Ag      10.22122851       7.22750000      18.65913986  F
Ag       5.84070200       5.16250000      17.19896435  F
Ag      11.68140401       5.16250000      20.11931536  F
Ag      10.22122851       7.22750000      21.57949086  F
Ag       7.30087750       7.22750000      21.57949086  F
Ag       8.76105301       5.16250000      20.11931536  F
C        4.75082449       1.74082028      23.44535155  T
H        5.82876262       2.04261927      23.51354917  T
H        2.90254423       2.96213845      20.44725530  T
H        4.00224031       2.44343737      23.89488279  T
O        4.41486475       0.52143580      23.39173090  T
