53
Lattice="11.681404 0.0 0.0 0.0 8.26 0.0 0.0 0.0 37.300878" Properties=species:S:1:pos:R:3:move_mask:L:1 method=MACE-MP energy=-152.1616973876953 max_force=0.16382625699043274 pbc="T T T"
Ag      -0.00000001       1.03250000      13.91356947  F
Ag       4.38052650       3.09750000      15.37374497  F
Ag       1.46017549       3.09750000      15.37374497  F
Ag       2.92035099       1.03250000      13.91356947  F
Ag       2.92035099       1.03250000      16.83392048  F
Ag       1.46017549       3.09750000      18.29409598  F
Ag       4.38052650       3.09750000      18.29409598  F
Ag      -0.00000001       1.03250000      16.83392048  F
Ag       5.84070200       1.03250000      19.75427148  F
Ag       4.38052650       3.09750000      21.21444699  F
Ag       1.46017549       3.09750000      21.21444699  F
Ag       2.92035099       1.03250000      19.75427148  F
Ag      -0.00000001       5.16250000      13.91356947  F
Ag       4.38052650       7.22750000      15.37374497  F
Ag       1.46017549       7.22750000      15.37374497  F
Ag       2.92035099       5.16250000      13.91356947  F
Ag       2.92035099       5.16250000      16.83392048  F
Ag       1.46017549       7.22750000      18.29409598  F
Ag       4.38052650       7.22750000      18.29409598  F
Ag      -0.00000001       5.16250000      16.83392048  F
Ag       5.84070200       5.16250000      19.75427148  F
Ag       4.38052650       7.22750000      21.21444699  F
Ag       1.46017549       7.22750000      21.21444699  F
Ag       2.92035099       5.16250000      19.75427148  F
Ag       5.84070200       1.03250000      13.91356947  F
Ag      10.22122851       3.09750000      15.37374497  F
Ag       7.30087750       3.09750000      15.37374497  F
Ag       8.76105301       1.03250000      13.91356947  F
Ag       8.76105301       1.03250000      16.83392048  F
Ag       7.30087750       3.09750000      18.29409598  F
Ag      10.22122851       3.09750000      18.29409598  F
Ag       5.84070200       1.03250000      16.83392048  F
Ag      11.68140401       1.03250000      19.75427148  F
Ag      10.22122851       3.09750000      21.21444699  F
Ag       7.30087750       3.09750000      21.21444699  F
Ag       8.76105301       1.03250000      19.75427148  F
Ag       5.84070200       5.16250000      13.91356947  F
Ag      10.22122851       7.22750000      15.37374497  F
Ag       7.30087750       7.22750000      15.37374497  F
Ag       8.76105301       5.16250000      13.91356947  F
Ag       8.76105301       5.16250000      16.83392048  F
Ag       7.30087750       7.22750000      18.29409598  F
Ag      10.22122851       7.22750000      18.29409598  F
Ag       5.84070200       5.16250000      16.83392048  F
Ag      11.68140401       5.16250000      19.75427148  F
Ag      10.22122851       7.22750000      21.21444699  F
Ag       7.30087750       7.22750000      21.21444699  F
Ag       8.76105301       5.16250000      19.75427148  F
C        5.75651032       4.02859558      23.88835300  T
H        6.73722440       4.19626900      24.36574603  T
H        5.36835876       5.00405470      23.52111586  T
H        5.07294953       3.64235805      24.66044721  T
O        5.85065480       3.01332454      22.91674754  T
