45
Lattice="9.234961 0.0 0.0 7.387969 9.048377 0.0 0.0 0.0 37.587294" Properties=species:S:1:pos:R:3:move_mask:L:1 method=CHGNet energy=-133.1337127685547 max_force=0.18774981796741486 pbc="T T T"
Ag       1.69307646       0.18850802      14.09587537  F
Ag       3.54006861       2.45060218      14.09587537  F
Ag       8.15754899       4.33568065      14.93890809  F
Ag       6.31055684       2.07358649      14.93890809  F
Ag      10.92803721       3.95866496      15.78194081  F
Ag       9.08104506       1.69657080      15.78194081  F
Ag       4.46356469       3.58164927      16.62497353  F
Ag       2.61657254       1.31955510      16.62497353  F
Ag       7.23405291       3.20463357      17.46800625  F
Ag       5.38706076       0.94253941      17.46800625  F
Ag      10.00454113       2.82761788      18.31103897  F
Ag       8.15754899       0.56552372      18.31103897  F
Ag       3.54006861       2.45060218      19.15407169  F
Ag       1.69307646       0.18850802      19.15407169  F
Ag       6.31055684       2.07358649      19.99710441  F
Ag       8.15754899       4.33568065      19.99710441  F
Ag       9.08104506       1.69657080      20.84013713  F
Ag      10.92803721       3.95866496      20.84013713  F
Ag       2.61657254       1.31955510      21.68316985  F
Ag       4.46356469       3.58164927      21.68316985  F
Ag       5.38706076       4.71269635      14.09587537  F
Ag       7.23405291       6.97479051      14.09587537  F
Ag      11.85153328       8.85986898      14.93890809  F
Ag      10.00454113       6.59777482      14.93890809  F
Ag      14.62202151       8.48285328      15.78194081  F
Ag      12.77502936       6.22075912      15.78194081  F
Ag       8.15754899       8.10583759      16.62497353  F
Ag       6.31055684       5.84374343      16.62497353  F
Ag      10.92803721       7.72882190      17.46800625  F
Ag       9.08104506       5.46672773      17.46800625  F
Ag      13.69852543       7.35180620      18.31103897  F
Ag      11.85153328       5.08971204      18.31103897  F
Ag       7.23405291       6.97479051      19.15407169  F
Ag       5.38706076       4.71269635      19.15407169  F
Ag      10.00454113       6.59777482      19.99710441  F
Ag      11.85153328       8.85986898      19.99710441  F
Ag      12.77502936       6.22075912      20.84013713  F
Ag      14.62202151       8.48285328      20.84013713  F
Ag       6.31055684       5.84374343      21.68316985  F
Ag       8.15754899       8.10583759      21.68316985  F
C        5.94600346       1.04304749      23.26022537  T
H        6.96534463       0.71156369      23.53947163  T
H        5.35833896       1.14394171      24.19470358  T
H        5.52047118       0.19904464      22.67450835  T
O        6.04382653       2.22747450      22.51967774  T
