53
Lattice="11.681404 0.0 0.0 0.0 8.26 0.0 0.0 0.0 37.300878" Properties=species:S:1:pos:R:3:move_mask:L:1 method=MACE-MP energy=-914.2376708984375 max_force=18823.564453125 pbc="T T T"
Ag      -0.00000001       1.94102187      14.27861335  F
Ag       4.38052650       4.00602187      15.73878885  F
Ag       1.46017549       4.00602187      15.73878885  F
Ag       2.92035099       1.94102187      14.27861335  F
Ag       2.92035099       1.94102187      17.19896435  F
Ag       1.46017549       4.00602187      18.65913986  F
Ag       4.38052650       4.00602187      18.65913986  F
Ag      -0.00000001       1.94102187      17.19896435  F
Ag       5.84070200       1.94102187      20.11931536  F
Ag       4.38052650       4.00602187      21.57949086  F
Ag       1.46017549       4.00602187      21.57949086  F
Ag       2.92035099       1.94102187      20.11931536  F
Ag      -0.00000001       6.07102187      14.27861335  F
Ag       4.38052650       8.13602187      15.73878885  F
Ag       1.46017549       8.13602187      15.73878885  F
Ag       2.92035099       6.07102187      14.27861335  F
Ag       2.92035099       6.07102187      17.19896435  F
Ag       1.46017549       8.13602187      18.65913986  F
Ag       4.38052650       8.13602187      18.65913986  F
Ag      -0.00000001       6.07102187      17.19896435  F
Ag       5.84070200       6.07102187      20.11931536  F
Ag       4.38052650       8.13602187      21.57949086  F
Ag       1.46017549       8.13602187      21.57949086  F
Ag       2.92035099       6.07102187      20.11931536  F
Ag       5.84070200       1.94102187      14.27861335  F
Ag      10.22122851       4.00602187      15.73878885  F
Ag       7.30087750       4.00602187      15.73878885  F
Ag       8.76105301       1.94102187      14.27861335  F
Ag       8.76105301       1.94102187      17.19896435  F
Ag       7.30087750       4.00602187      18.65913986  F
Ag      10.22122851       4.00602187      18.65913986  F
Ag       5.84070200       1.94102187      17.19896435  F
Ag      11.68140401       1.94102187      20.11931536  F
Ag      10.22122851       4.00602187      21.57949086  F
Ag       7.30087750       4.00602187      21.57949086  F
Ag       8.76105301       1.94102187      20.11931536  F
Ag       5.84070200       6.07102187      14.27861335  F
Ag      10.22122851       8.13602187      15.73878885  F
Ag       7.30087750       8.13602187      15.73878885  F
Ag       8.76105301       6.07102187      14.27861335  F
Ag       8.76105301       6.07102187      17.19896435  F
Ag       7.30087750       8.13602187      18.65913986  F
Ag      10.22122851       8.13602187      18.65913986  F
Ag       5.84070200       6.07102187      17.19896435  F
Ag      11.68140401       6.07102187      20.11931536  F
Ag      10.22122851       8.13602187      21.57949086  F
Ag       7.30087750       8.13602187      21.57949086  F
Ag       8.76105301       6.07102187      20.11931536  F
C        3.94610055       0.61990942      22.14858827  T
H        3.97345109      -0.74637434      22.01366929  T
H        4.67882478       0.02176356      21.60063585  T
H        5.01408096      -4.39412514      25.08058522  T
O        3.92313177       0.90424252      20.87587240  T
