45
Lattice="9.234961 0.0 0.0 7.387969 9.048377 0.0 0.0 0.0 37.587294" Properties=species:S:1:pos:R:3:move_mask:L:1 method=CHGNet energy=-132.59747314453125 max_force=0.18958131968975067 pbc="T T T"
Ag       2.65837158       0.18850802      13.82671704  F
Ag       4.50536373       2.45060218      13.82671704  F
Ag       9.12284410       4.33568065      14.66974976  F
Ag       7.27585195       2.07358649      14.66974976  F
Ag      11.89333233       3.95866496      15.51278248  F
Ag      10.04634018       1.69657080      15.51278248  F
Ag       5.42885980       3.58164927      16.35581520  F
Ag       3.58186766       1.31955510      16.35581520  F
Ag       8.19934803       3.20463357      17.19884792  F
Ag       6.35235588       0.94253941      17.19884792  F
Ag      10.96983625       2.82761788      18.04188064  F
Ag       9.12284410       0.56552372      18.04188064  F
Ag       4.50536373       2.45060218      18.88491336  F
Ag       2.65837158       0.18850802      18.88491336  F
Ag       7.27585195       2.07358649      19.72794608  F
Ag       9.12284410       4.33568065      19.72794608  F
Ag      10.04634018       1.69657080      20.57097880  F
Ag      11.89333233       3.95866496      20.57097880  F
Ag       3.58186766       1.31955510      21.41401152  F
Ag       5.42885980       3.58164927      21.41401152  F
Ag       6.35235588       4.71269635      13.82671704  F
Ag       8.19934803       6.97479051      13.82671704  F
Ag      12.81682840       8.85986898      14.66974976  F
Ag      10.96983625       6.59777482      14.66974976  F
Ag      15.58731663       8.48285328      15.51278248  F
Ag      13.74032448       6.22075912      15.51278248  F
Ag       9.12284410       8.10583759      16.35581520  F
Ag       7.27585195       5.84374343      16.35581520  F
Ag      11.89333233       7.72882190      17.19884792  F
Ag      10.04634018       5.46672773      17.19884792  F
Ag      14.66382055       7.35180620      18.04188064  F
Ag      12.81682840       5.08971204      18.04188064  F
Ag       8.19934803       6.97479051      18.88491336  F
Ag       6.35235588       4.71269635      18.88491336  F
Ag      10.96983625       6.59777482      19.72794608  F
Ag      12.81682840       8.85986898      19.72794608  F
Ag      13.74032448       6.22075912      20.57097880  F
Ag      15.58731663       8.48285328      20.57097880  F
Ag       7.27585195       5.84374343      21.41401152  F
Ag       9.12284410       8.10583759      21.41401152  F
C        3.56351191       2.29809546      24.16099527  T
H        2.50547924       2.57944717      23.98458168  T
H        4.26240952       3.03124924      24.62955104  T
H        3.73297185       3.69492705      21.93773939  T
O        3.97994552       1.18610436      23.78182239  T
