53
Lattice="11.681404 0.0 0.0 0.0 8.26 0.0 0.0 0.0 37.300878" Properties=species:S:1:pos:R:3:move_mask:L:1 method=CHGNet energy=-153.7037353515625 max_force=0.17887231707572937 pbc="T T T"
Ag      -0.00000001       1.03250000      14.27861335  F
Ag       4.38052650       3.09750000      15.73878885  F
Ag       1.46017549       3.09750000      15.73878885  F
Ag       2.92035099       1.03250000      14.27861335  F
Ag       2.92035099       1.03250000      17.19896435  F
Ag       1.46017549       3.09750000      18.65913986  F
Ag       4.38052650       3.09750000      18.65913986  F
Ag      -0.00000001       1.03250000      17.19896435  F
Ag       5.84070200       1.03250000      20.11931536  F
Ag       4.38052650       3.09750000      21.57949086  F
Ag       1.46017549       3.09750000      21.57949086  F
Ag       2.92035099       1.03250000      20.11931536  F
Ag      -0.00000001       5.16250000      14.27861335  F
Ag       4.38052650       7.22750000      15.73878885  F
Ag       1.46017549       7.22750000      15.73878885  F
Ag       2.92035099       5.16250000      14.27861335  F
Ag       2.92035099       5.16250000      17.19896435  F
Ag       1.46017549       7.22750000      18.65913986  F
Ag       4.38052650       7.22750000      18.65913986  F
Ag      -0.00000001       5.16250000      17.19896435  F
Ag       5.84070200       5.16250000      20.11931536  F
Ag       4.38052650       7.22750000      21.57949086  F
Ag       1.46017549       7.22750000      21.57949086  F
Ag       2.92035099       5.16250000      20.11931536  F
Ag       5.84070200       1.03250000      14.27861335  F
Ag      10.22122851       3.09750000      15.73878885  F
Ag       7.30087750       3.09750000      15.73878885  F
Ag       8.76105301       1.03250000      14.27861335  F
Ag       8.76105301       1.03250000      17.19896435  F
Ag       7.30087750       3.09750000      18.65913986  F
Ag      10.22122851       3.09750000      18.65913986  F
Ag       5.84070200       1.03250000      17.19896435  F
Ag      11.68140401       1.03250000      20.11931536  F
Ag      10.22122851       3.09750000      21.57949086  F
Ag       7.30087750       3.09750000      21.57949086  F
Ag       8.76105301       1.03250000      20.11931536  F
Ag       5.84070200       5.16250000      14.27861335  F
Ag      10.22122851       7.22750000      15.73878885  F
Ag       7.30087750       7.22750000      15.73878885  F
Ag       8.76105301       5.16250000      14.27861335  F
Ag       8.76105301       5.16250000      17.19896435  F
Ag       7.30087750       7.22750000      18.65913986  F
Ag      10.22122851       7.22750000      18.65913986  F
Ag       5.84070200       5.16250000      17.19896435  F
Ag      11.68140401       5.16250000      20.11931536  F
Ag      10.22122851       7.22750000      21.57949086  F
Ag       7.30087750       7.22750000      21.57949086  F
Ag       8.76105301       5.16250000      20.11931536  F
C        6.00417055       1.36666162      23.85600991  T
H        6.98320304       1.86636567      24.06259432  T
H        5.78136655       3.24969564      20.40575111  T
H        5.05152636       1.91737311      24.06180498  T
O        5.97078931       0.20173511      23.38605838  T
