53
Lattice="11.681404 0.0 0.0 0.0 8.26 0.0 0.0 0.0 37.300878" Properties=species:S:1:pos:R:3:move_mask:L:1 method=MACE-MP energy=-152.00204467773438 max_force=0.17796394228935242 pbc="T T T"
Ag      -0.00000001       1.48397465      13.82156612  F
Ag       4.38052650       3.54897465      15.28174163  F
Ag       1.46017549       3.54897465      15.28174163  F
Ag       2.92035099       1.48397465      13.82156612  F
Ag       2.92035099       1.48397465      16.74191713  F
Ag       1.46017549       3.54897465      18.20209263  F
Ag       4.38052650       3.54897465      18.20209263  F
Ag      -0.00000001       1.48397465      16.74191713  F
Ag       5.84070200       1.48397465      19.66226813  F
Ag       4.38052650       3.54897465      21.12244364  F
Ag       1.46017549       3.54897465      21.12244364  F
Ag       2.92035099       1.48397465      19.66226813  F
Ag      -0.00000001       5.61397465      13.82156612  F
Ag       4.38052650       7.67897465      15.28174163  F
Ag       1.46017549       7.67897465      15.28174163  F
Ag       2.92035099       5.61397465      13.82156612  F
Ag       2.92035099       5.61397465      16.74191713  F
Ag       1.46017549       7.67897465      18.20209263  F
Ag       4.38052650       7.67897465      18.20209263  F
Ag      -0.00000001       5.61397465      16.74191713  F
Ag       5.84070200       5.61397465      19.66226813  F
Ag       4.38052650       7.67897465      21.12244364  F
Ag       1.46017549       7.67897465      21.12244364  F
Ag       2.92035099       5.61397465      19.66226813  F
Ag       5.84070200       1.48397465      13.82156612  F
Ag      10.22122851       3.54897465      15.28174163  F
Ag       7.30087750       3.54897465      15.28174163  F
Ag       8.76105301       1.48397465      13.82156612  F
Ag       8.76105301       1.48397465      16.74191713  F
Ag       7.30087750       3.54897465      18.20209263  F
Ag      10.22122851       3.54897465      18.20209263  F
Ag       5.84070200       1.48397465      16.74191713  F
Ag      11.68140401       1.48397465      19.66226813  F
Ag      10.22122851       3.54897465      21.12244364  F
Ag       7.30087750       3.54897465      21.12244364  F
Ag       8.76105301       1.48397465      19.66226813  F
Ag       5.84070200       5.61397465      13.82156612  F
Ag      10.22122851       7.67897465      15.28174163  F
Ag       7.30087750       7.67897465      15.28174163  F
Ag       8.76105301       5.61397465      13.82156612  F
Ag       8.76105301       5.61397465      16.74191713  F
Ag       7.30087750       7.67897465      18.20209263  F
Ag      10.22122851       7.67897465      18.20209263  F
Ag       5.84070200       5.61397465      16.74191713  F
Ag      11.68140401       5.61397465      19.66226813  F
Ag      10.22122851       7.67897465      21.12244364  F
Ag       7.30087750       7.67897465      21.12244364  F
Ag       8.76105301       5.61397465      19.66226813  F
C        5.82251907       1.45939277      23.65325316  T
H        6.84660801       1.37192657      24.05222551  T
H        5.33422069       2.36640023      24.04419414  T
H        5.24060862       0.57793141      23.97976696  T
O        5.88152018       1.55944686      22.26858028  T
