53
Lattice="11.681404 0.0 0.0 0.0 8.26 0.0 0.0 0.0 37.300878" Properties=species:S:1:pos:R:3:move_mask:L:1 method=MACE-MP energy=-152.1324005126953 max_force=0.1669938713312149 pbc="T T T"
Ag      -0.00000001       1.42477187      13.91356947  F
Ag       4.38052650       3.48977187      15.37374497  F
Ag       1.46017549       3.48977187      15.37374497  F
Ag       2.92035099       1.42477187      13.91356947  F
Ag       2.92035099       1.42477187      16.83392048  F
Ag       1.46017549       3.48977187      18.29409598  F
Ag       4.38052650       3.48977187      18.29409598  F
Ag      -0.00000001       1.42477187      16.83392048  F
Ag       5.84070200       1.42477187      19.75427148  F
Ag       4.38052650       3.48977187      21.21444699  F
Ag       1.46017549       3.48977187      21.21444699  F
Ag       2.92035099       1.42477187      19.75427148  F
Ag      -0.00000001       5.55477187      13.91356947  F
Ag       4.38052650       7.61977187      15.37374497  F
Ag       1.46017549       7.61977187      15.37374497  F
Ag       2.92035099       5.55477187      13.91356947  F
Ag       2.92035099       5.55477187      16.83392048  F
Ag       1.46017549       7.61977187      18.29409598  F
Ag       4.38052650       7.61977187      18.29409598  F
Ag      -0.00000001       5.55477187      16.83392048  F
Ag       5.84070200       5.55477187      19.75427148  F
Ag       4.38052650       7.61977187      21.21444699  F
Ag       1.46017549       7.61977187      21.21444699  F
Ag       2.92035099       5.55477187      19.75427148  F
Ag       5.84070200       1.42477187      13.91356947  F
Ag      10.22122851       3.48977187      15.37374497  F
Ag       7.30087750       3.48977187      15.37374497  F
Ag       8.76105301       1.42477187      13.91356947  F
Ag       8.76105301       1.42477187      16.83392048  F
Ag       7.30087750       3.48977187      18.29409598  F
Ag      10.22122851       3.48977187      18.29409598  F
Ag       5.84070200       1.42477187      16.83392048  F
Ag      11.68140401       1.42477187      19.75427148  F
Ag      10.22122851       3.48977187      21.21444699  F
Ag       7.30087750       3.48977187      21.21444699  F
Ag       8.76105301       1.42477187      19.75427148  F
Ag       5.84070200       5.55477187      13.91356947  F
Ag      10.22122851       7.61977187      15.37374497  F
Ag       7.30087750       7.61977187      15.37374497  F
Ag       8.76105301       5.55477187      13.91356947  F
Ag       8.76105301       5.55477187      16.83392048  F
Ag       7.30087750       7.61977187      18.29409598  F
Ag      10.22122851       7.61977187      18.29409598  F
Ag       5.84070200       5.55477187      16.83392048  F
Ag      11.68140401       5.55477187      19.75427148  F
Ag      10.22122851       7.61977187      21.21444699  F
Ag       7.30087750       7.61977187      21.21444699  F
Ag       8.76105301       5.55477187      19.75427148  F
C        5.47258258       1.58006774      23.59162873  T
H        4.42204255       1.22074939      23.50270463  T
H        6.10142403       0.70107025      23.32230229  T
H        5.67005508       1.86105391      24.64686145  T
O        5.74829088       2.69793616      22.80379347  T
