45
Lattice="9.234961 0.0 0.0 7.387969 9.048377 0.0 0.0 0.0 37.587294" Properties=species:S:1:pos:R:3:move_mask:L:1 method=MACE-MP energy=-131.03903198242188 max_force=0.13717703521251678 pbc="T T T"
Ag       1.69307646       0.18850802      14.32858747  F
Ag       3.54006861       2.45060218      14.32858747  F
Ag       8.15754899       4.33568065      15.17162019  F
Ag       6.31055684       2.07358649      15.17162019  F
Ag      10.92803721       3.95866496      16.01465291  F
Ag       9.08104506       1.69657080      16.01465291  F
Ag       4.46356469       3.58164927      16.85768563  F
Ag       2.61657254       1.31955510      16.85768563  F
Ag       7.23405291       3.20463357      17.70071835  F
Ag       5.38706076       0.94253941      17.70071835  F
Ag      10.00454113       2.82761788      18.54375107  F
Ag       8.15754899       0.56552372      18.54375107  F
Ag       3.54006861       2.45060218      19.38678379  F
Ag       1.69307646       0.18850802      19.38678379  F
Ag       6.31055684       2.07358649      20.22981651  F
Ag       8.15754899       4.33568065      20.22981651  F
Ag       9.08104506       1.69657080      21.07284923  F
Ag      10.92803721       3.95866496      21.07284923  F
Ag       2.61657254       1.31955510      21.91588194  F
Ag       4.46356469       3.58164927      21.91588194  F
Ag       5.38706076       4.71269635      14.32858747  F
Ag       7.23405291       6.97479051      14.32858747  F
Ag      11.85153328       8.85986898      15.17162019  F
Ag      10.00454113       6.59777482      15.17162019  F
Ag      14.62202151       8.48285328      16.01465291  F
Ag      12.77502936       6.22075912      16.01465291  F
Ag       8.15754899       8.10583759      16.85768563  F
Ag       6.31055684       5.84374343      16.85768563  F
Ag      10.92803721       7.72882190      17.70071835  F
Ag       9.08104506       5.46672773      17.70071835  F
Ag      13.69852543       7.35180620      18.54375107  F
Ag      11.85153328       5.08971204      18.54375107  F
Ag       7.23405291       6.97479051      19.38678379  F
Ag       5.38706076       4.71269635      19.38678379  F
Ag      10.00454113       6.59777482      20.22981651  F
Ag      11.85153328       8.85986898      20.22981651  F
Ag      12.77502936       6.22075912      21.07284923  F
Ag      14.62202151       8.48285328      21.07284923  F
Ag       6.31055684       5.84374343      21.91588194  F
Ag       8.15754899       8.10583759      21.91588194  F
C        7.51514026       3.14783906      23.49748455  T
H        8.58281686       3.29263857      23.75198905  T
H        7.12328684       4.16185240      23.20709783  T
H        6.94554899       2.81395283      24.38827937  T
O        7.35716214       2.18722536      22.50779862  T
