53
Lattice="11.681404 0.0 0.0 0.0 8.26 0.0 0.0 0.0 37.300878" Properties=species:S:1:pos:R:3:move_mask:L:1 method=MACE-MP energy=-152.0486602783203 max_force=0.19272172451019287 pbc="T T T"
Ag      -0.00000001       1.48166447      13.82156612  F
Ag       4.38052650       3.54666447      15.28174163  F
Ag       1.46017549       3.54666447      15.28174163  F
Ag       2.92035099       1.48166447      13.82156612  F
Ag       2.92035099       1.48166447      16.74191713  F
Ag       1.46017549       3.54666447      18.20209263  F
Ag       4.38052650       3.54666447      18.20209263  F
Ag      -0.00000001       1.48166447      16.74191713  F
Ag       5.84070200       1.48166447      19.66226813  F
Ag       4.38052650       3.54666447      21.12244364  F
Ag       1.46017549       3.54666447      21.12244364  F
Ag       2.92035099       1.48166447      19.66226813  F
Ag      -0.00000001       5.61166447      13.82156612  F
Ag       4.38052650       7.67666447      15.28174163  F
Ag       1.46017549       7.67666447      15.28174163  F
Ag       2.92035099       5.61166447      13.82156612  F
Ag       2.92035099       5.61166447      16.74191713  F
Ag       1.46017549       7.67666447      18.20209263  F
Ag       4.38052650       7.67666447      18.20209263  F
Ag      -0.00000001       5.61166447      16.74191713  F
Ag       5.84070200       5.61166447      19.66226813  F
Ag       4.38052650       7.67666447      21.12244364  F
Ag       1.46017549       7.67666447      21.12244364  F
Ag       2.92035099       5.61166447      19.66226813  F
Ag       5.84070200       1.48166447      13.82156612  F
Ag      10.22122851       3.54666447      15.28174163  F
Ag       7.30087750       3.54666447      15.28174163  F
Ag       8.76105301       1.48166447      13.82156612  F
Ag       8.76105301       1.48166447      16.74191713  F
Ag       7.30087750       3.54666447      18.20209263  F
Ag      10.22122851       3.54666447      18.20209263  F
Ag       5.84070200       1.48166447      16.74191713  F
Ag      11.68140401       1.48166447      19.66226813  F
Ag      10.22122851       3.54666447      21.12244364  F
Ag       7.30087750       3.54666447      21.12244364  F
Ag       8.76105301       1.48166447      19.66226813  F
Ag       5.84070200       5.61166447      13.82156612  F
Ag      10.22122851       7.67666447      15.28174163  F
Ag       7.30087750       7.67666447      15.28174163  F
Ag       8.76105301       5.61166447      13.82156612  F
Ag       8.76105301       5.61166447      16.74191713  F
Ag       7.30087750       7.67666447      18.20209263  F
Ag      10.22122851       7.67666447      18.20209263  F
Ag       5.84070200       5.61166447      16.74191713  F
Ag      11.68140401       5.61166447      19.66226813  F
Ag      10.22122851       7.67666447      21.12244364  F
Ag       7.30087750       7.67666447      21.12244364  F
Ag       8.76105301       5.61166447      19.66226813  F
C        5.85716676       1.44966417      23.66795176  T
H        4.83691529       1.61833385      24.06089638  T
H        6.34860763       0.62513133      24.21614221  T
H        6.43289290       2.38049093      23.83087895  T
O        5.81661329       1.12845481      22.31049244  T
