45
Lattice="9.234961 0.0 0.0 7.387969 9.048377 0.0 0.0 0.0 37.587294" Properties=species:S:1:pos:R:3:move_mask:L:1 method=GFN1-xTB energy=-4451.059498792985 max_force=0.1581002436496372 pbc="T T T"
Ag       1.69307646       0.18850802      14.27750455  F
Ag       3.54006861       2.45060218      14.27750455  F
Ag       8.15754899       4.33568065      15.12053727  F
Ag       6.31055684       2.07358649      15.12053727  F
Ag      10.92803721       3.95866496      15.96356999  F
Ag       9.08104506       1.69657080      15.96356999  F
Ag       4.46356469       3.58164927      16.80660271  F
Ag       2.61657254       1.31955510      16.80660271  F
Ag       7.23405291       3.20463357      17.64963543  F
Ag       5.38706076       0.94253941      17.64963543  F
Ag      10.00454113       2.82761788      18.49266815  F
Ag       8.15754899       0.56552372      18.49266815  F
Ag       3.54006861       2.45060218      19.33570087  F
Ag       1.69307646       0.18850802      19.33570087  F
Ag       6.31055684       2.07358649      20.17873359  F
Ag       8.15754899       4.33568065      20.17873359  F
Ag       9.08104506       1.69657080      21.02176631  F
Ag      10.92803721       3.95866496      21.02176631  F
Ag       2.61657254       1.31955510      21.86479903  F
Ag       4.46356469       3.58164927      21.86479903  F
Ag       5.38706076       4.71269635      14.27750455  F
Ag       7.23405291       6.97479051      14.27750455  F
Ag      11.85153328       8.85986898      15.12053727  F
Ag      10.00454113       6.59777482      15.12053727  F
Ag      14.62202151       8.48285328      15.96356999  F
Ag      12.77502936       6.22075912      15.96356999  F
Ag       8.15754899       8.10583759      16.80660271  F
Ag       6.31055684       5.84374343      16.80660271  F
Ag      10.92803721       7.72882190      17.64963543  F
Ag       9.08104506       5.46672773      17.64963543  F
Ag      13.69852543       7.35180620      18.49266815  F
Ag      11.85153328       5.08971204      18.49266815  F
Ag       7.23405291       6.97479051      19.33570087  F
Ag       5.38706076       4.71269635      19.33570087  F
Ag      10.00454113       6.59777482      20.17873359  F
Ag      11.85153328       8.85986898      20.17873359  F
Ag      12.77502936       6.22075912      21.02176631  F
Ag      14.62202151       8.48285328      21.02176631  F
Ag       6.31055684       5.84374343      21.86479903  F
Ag       8.15754899       8.10583759      21.86479903  F
C        8.95319893       4.47404850      23.67478500  T
H        9.95069307       4.70834346      24.08999237  T
H        8.37485537       5.42183577      23.65552981  T
H        8.43676549       3.80076001      24.37827287  T
O        9.05618689       3.89819681      22.40775722  T
