53
Lattice="11.681404 0.0 0.0 0.0 8.26 0.0 0.0 0.0 37.300878" Properties=species:S:1:pos:R:3:move_mask:L:1 method=MACE-MP energy=-151.95091247558594 max_force=0.19831246137619019 pbc="T T T"
Ag      -0.00000001       1.03250000      13.55083578  F
Ag       4.38052650       3.09750000      15.01101128  F
Ag       1.46017549       3.09750000      15.01101128  F
Ag       2.92035099       1.03250000      13.55083578  F
Ag       2.92035099       1.03250000      16.47118678  F
Ag       1.46017549       3.09750000      17.93136228  F
Ag       4.38052650       3.09750000      17.93136228  F
Ag      -0.00000001       1.03250000      16.47118678  F
Ag       5.84070200       1.03250000      19.39153779  F
Ag       4.38052650       3.09750000      20.85171329  F
Ag       1.46017549       3.09750000      20.85171329  F
Ag       2.92035099       1.03250000      19.39153779  F
Ag      -0.00000001       5.16250000      13.55083578  F
Ag       4.38052650       7.22750000      15.01101128  F
Ag       1.46017549       7.22750000      15.01101128  F
Ag       2.92035099       5.16250000      13.55083578  F
Ag       2.92035099       5.16250000      16.47118678  F
Ag       1.46017549       7.22750000      17.93136228  F
Ag       4.38052650       7.22750000      17.93136228  F
Ag      -0.00000001       5.16250000      16.47118678  F
Ag       5.84070200       5.16250000      19.39153779  F
Ag       4.38052650       7.22750000      20.85171329  F
Ag       1.46017549       7.22750000      20.85171329  F
Ag       2.92035099       5.16250000      19.39153779  F
Ag       5.84070200       1.03250000      13.55083578  F
Ag      10.22122851       3.09750000      15.01101128  F
Ag       7.30087750       3.09750000      15.01101128  F
Ag       8.76105301       1.03250000      13.55083578  F
Ag       8.76105301       1.03250000      16.47118678  F
Ag       7.30087750       3.09750000      17.93136228  F
Ag      10.22122851       3.09750000      17.93136228  F
Ag       5.84070200       1.03250000      16.47118678  F
Ag      11.68140401       1.03250000      19.39153779  F
Ag      10.22122851       3.09750000      20.85171329  F
Ag       7.30087750       3.09750000      20.85171329  F
Ag       8.76105301       1.03250000      19.39153779  F
Ag       5.84070200       5.16250000      13.55083578  F
Ag      10.22122851       7.22750000      15.01101128  F
Ag       7.30087750       7.22750000      15.01101128  F
Ag       8.76105301       5.16250000      13.55083578  F
Ag       8.76105301       5.16250000      16.47118678  F
Ag       7.30087750       7.22750000      17.93136228  F
Ag      10.22122851       7.22750000      17.93136228  F
Ag       5.84070200       5.16250000      16.47118678  F
Ag      11.68140401       5.16250000      19.39153779  F
Ag      10.22122851       7.22750000      20.85171329  F
Ag       7.30087750       7.22750000      20.85171329  F
Ag       8.76105301       5.16250000      19.39153779  F
C        5.48772991       5.67421047      23.31049440  T
H        4.48334891       6.11955054      23.48817318  T
H        5.74305198       4.96332380      24.12574479  T
H        6.18045390       6.54975776      23.33635623  T
O        5.58339403       5.04661938      22.06436891  T
