45
Lattice="9.234961 0.0 0.0 7.387969 9.048377 0.0 0.0 0.0 37.587294" Properties=species:S:1:pos:R:3:move_mask:L:1 method=MACE-MP energy=-130.11416625976562 max_force=0.1881805956363678 pbc="T T T"
Ag       2.03729507       0.18850802      14.09587537  F
Ag       3.88428721       2.45060218      14.09587537  F
Ag       8.50176759       4.33568065      14.93890809  F
Ag       6.65477544       2.07358649      14.93890809  F
Ag      11.27225581       3.95866496      15.78194081  F
Ag       9.42526366       1.69657080      15.78194081  F
Ag       4.80778329       3.58164927      16.62497353  F
Ag       2.96079114       1.31955510      16.62497353  F
Ag       7.57827151       3.20463357      17.46800625  F
Ag       5.73127936       0.94253941      17.46800625  F
Ag      10.34875974       2.82761788      18.31103897  F
Ag       8.50176759       0.56552372      18.31103897  F
Ag       3.88428721       2.45060218      19.15407169  F
Ag       2.03729507       0.18850802      19.15407169  F
Ag       6.65477544       2.07358649      19.99710441  F
Ag       8.50176759       4.33568065      19.99710441  F
Ag       9.42526366       1.69657080      20.84013713  F
Ag      11.27225581       3.95866496      20.84013713  F
Ag       2.96079114       1.31955510      21.68316985  F
Ag       4.80778329       3.58164927      21.68316985  F
Ag       5.73127936       4.71269635      14.09587537  F
Ag       7.57827151       6.97479051      14.09587537  F
Ag      12.19575189       8.85986898      14.93890809  F
Ag      10.34875974       6.59777482      14.93890809  F
Ag      14.96624011       8.48285328      15.78194081  F
Ag      13.11924796       6.22075912      15.78194081  F
Ag       8.50176759       8.10583759      16.62497353  F
Ag       6.65477544       5.84374343      16.62497353  F
Ag      11.27225581       7.72882190      17.46800625  F
Ag       9.42526366       5.46672773      17.46800625  F
Ag      14.04274404       7.35180620      18.31103897  F
Ag      12.19575189       5.08971204      18.31103897  F
Ag       7.57827151       6.97479051      19.15407169  F
Ag       5.73127936       4.71269635      19.15407169  F
Ag      10.34875974       6.59777482      19.99710441  F
Ag      12.19575189       8.85986898      19.99710441  F
Ag      13.11924796       6.22075912      20.84013713  F
Ag      14.96624011       8.48285328      20.84013713  F
Ag       6.65477544       5.84374343      21.68316985  F
Ag       8.50176759       8.10583759      21.68316985  F
C        6.68163029       4.03871170      23.98723238  T
H        5.60435921       4.33335751      23.93945331  T
H        7.27103521       4.80388940      24.53243638  T
H        7.02698628       3.94490750      22.93115299  T
O        6.81377383       2.74808565      24.37242649  T
