45
Lattice="9.234961 0.0 0.0 7.387969 9.048377 0.0 0.0 0.0 37.587294" Properties=species:S:1:pos:R:3:move_mask:L:1 method=GFN1-xTB energy=-4450.964028190126 max_force=0.16992062246013667 pbc="T T T"
Ag       1.69307646       0.18850802      14.07587831  F
Ag       3.54006861       2.45060218      14.07587831  F
Ag       8.15754899       4.33568065      14.91891103  F
Ag       6.31055684       2.07358649      14.91891103  F
Ag      10.92803721       3.95866496      15.76194375  F
Ag       9.08104506       1.69657080      15.76194375  F
Ag       4.46356469       3.58164927      16.60497647  F
Ag       2.61657254       1.31955510      16.60497647  F
Ag       7.23405291       3.20463357      17.44800919  F
Ag       5.38706076       0.94253941      17.44800919  F
Ag      10.00454113       2.82761788      18.29104191  F
Ag       8.15754899       0.56552372      18.29104191  F
Ag       3.54006861       2.45060218      19.13407463  F
Ag       1.69307646       0.18850802      19.13407463  F
Ag       6.31055684       2.07358649      19.97710735  F
Ag       8.15754899       4.33568065      19.97710735  F
Ag       9.08104506       1.69657080      20.82014007  F
Ag      10.92803721       3.95866496      20.82014007  F
Ag       2.61657254       1.31955510      21.66317279  F
Ag       4.46356469       3.58164927      21.66317279  F
Ag       5.38706076       4.71269635      14.07587831  F
Ag       7.23405291       6.97479051      14.07587831  F
Ag      11.85153328       8.85986898      14.91891103  F
Ag      10.00454113       6.59777482      14.91891103  F
Ag      14.62202151       8.48285328      15.76194375  F
Ag      12.77502936       6.22075912      15.76194375  F
Ag       8.15754899       8.10583759      16.60497647  F
Ag       6.31055684       5.84374343      16.60497647  F
Ag      10.92803721       7.72882190      17.44800919  F
Ag       9.08104506       5.46672773      17.44800919  F
Ag      13.69852543       7.35180620      18.29104191  F
Ag      11.85153328       5.08971204      18.29104191  F
Ag       7.23405291       6.97479051      19.13407463  F
Ag       5.38706076       4.71269635      19.13407463  F
Ag      10.00454113       6.59777482      19.97710735  F
Ag      11.85153328       8.85986898      19.97710735  F
Ag      12.77502936       6.22075912      20.82014007  F
Ag      14.62202151       8.48285328      20.82014007  F
Ag       6.31055684       5.84374343      21.66317279  F
Ag       8.15754899       8.10583759      21.66317279  F
C        7.64457425       3.30403885      23.49198268  T
H        6.63776956       3.63244593      23.80820739  T
H        7.88517394       2.38351646      24.04990250  T
H        8.35942480       4.08185309      23.81827240  T
O        7.68751414       3.10630535      22.11360944  T
