45
Lattice="9.234961 0.0 0.0 7.387969 9.048377 0.0 0.0 0.0 37.587294" Properties=species:S:1:pos:R:3:move_mask:L:1 method=MACE-MP energy=-130.66616821289062 max_force=0.1358160376548767 pbc="T T T"
Ag       1.69307646       0.18850802      13.47050400  F
Ag       3.54006861       2.45060218      13.47050400  F
Ag       8.15754899       4.33568065      14.31353672  F
Ag       6.31055684       2.07358649      14.31353672  F
Ag      10.92803721       3.95866496      15.15656944  F
Ag       9.08104506       1.69657080      15.15656944  F
Ag       4.46356469       3.58164927      15.99960216  F
Ag       2.61657254       1.31955510      15.99960216  F
Ag       7.23405291       3.20463357      16.84263488  F
Ag       5.38706076       0.94253941      16.84263488  F
Ag      10.00454113       2.82761788      17.68566759  F
Ag       8.15754899       0.56552372      17.68566759  F
Ag       3.54006861       2.45060218      18.52870031  F
Ag       1.69307646       0.18850802      18.52870031  F
Ag       6.31055684       2.07358649      19.37173303  F
Ag       8.15754899       4.33568065      19.37173303  F
Ag       9.08104506       1.69657080      20.21476575  F
Ag      10.92803721       3.95866496      20.21476575  F
Ag       2.61657254       1.31955510      21.05779847  F
Ag       4.46356469       3.58164927      21.05779847  F
Ag       5.38706076       4.71269635      13.47050400  F
Ag       7.23405291       6.97479051      13.47050400  F
Ag      11.85153328       8.85986898      14.31353672  F
Ag      10.00454113       6.59777482      14.31353672  F
Ag      14.62202151       8.48285328      15.15656944  F
Ag      12.77502936       6.22075912      15.15656944  F
Ag       8.15754899       8.10583759      15.99960216  F
Ag       6.31055684       5.84374343      15.99960216  F
Ag      10.92803721       7.72882190      16.84263488  F
Ag       9.08104506       5.46672773      16.84263488  F
Ag      13.69852543       7.35180620      17.68566759  F
Ag      11.85153328       5.08971204      17.68566759  F
Ag       7.23405291       6.97479051      18.52870031  F
Ag       5.38706076       4.71269635      18.52870031  F
Ag      10.00454113       6.59777482      19.37173303  F
Ag      11.85153328       8.85986898      19.37173303  F
Ag      12.77502936       6.22075912      20.21476575  F
Ag      14.62202151       8.48285328      20.21476575  F
Ag       6.31055684       5.84374343      21.05779847  F
Ag       8.15754899       8.10583759      21.05779847  F
C        8.11080800       2.43126391      23.60068437  T
H        8.96750371       2.26431571      24.28234801  T
H        7.78346626       3.48361139      23.70351496  T
H        7.25899913       1.78367457      23.89684168  T
O        8.51895403       2.26251580      22.30381978  T
