53
Lattice="11.681404 0.0 0.0 0.0 8.26 0.0 0.0 0.0 37.300878" Properties=species:S:1:pos:R:3:move_mask:L:1 method=CHGNet energy=-154.44366455078125 max_force=0.15742814540863037 pbc="T T T"
Ag      -0.00000001       1.03250000      13.55083578  F
Ag       4.38052650       3.09750000      15.01101128  F
Ag       1.46017549       3.09750000      15.01101128  F
Ag       2.92035099       1.03250000      13.55083578  F
Ag       2.92035099       1.03250000      16.47118678  F
Ag       1.46017549       3.09750000      17.93136228  F
Ag       4.38052650       3.09750000      17.93136228  F
Ag      -0.00000001       1.03250000      16.47118678  F
Ag       5.84070200       1.03250000      19.39153779  F
Ag       4.38052650       3.09750000      20.85171329  F
Ag       1.46017549       3.09750000      20.85171329  F
Ag       2.92035099       1.03250000      19.39153779  F
Ag      -0.00000001       5.16250000      13.55083578  F
Ag       4.38052650       7.22750000      15.01101128  F
Ag       1.46017549       7.22750000      15.01101128  F
Ag       2.92035099       5.16250000      13.55083578  F
Ag       2.92035099       5.16250000      16.47118678  F
Ag       1.46017549       7.22750000      17.93136228  F
Ag       4.38052650       7.22750000      17.93136228  F
Ag      -0.00000001       5.16250000      16.47118678  F
Ag       5.84070200       5.16250000      19.39153779  F
Ag       4.38052650       7.22750000      20.85171329  F
Ag       1.46017549       7.22750000      20.85171329  F
Ag       2.92035099       5.16250000      19.39153779  F
Ag       5.84070200       1.03250000      13.55083578  F
Ag      10.22122851       3.09750000      15.01101128  F
Ag       7.30087750       3.09750000      15.01101128  F
Ag       8.76105301       1.03250000      13.55083578  F
Ag       8.76105301       1.03250000      16.47118678  F
Ag       7.30087750       3.09750000      17.93136228  F
Ag      10.22122851       3.09750000      17.93136228  F
Ag       5.84070200       1.03250000      16.47118678  F
Ag      11.68140401       1.03250000      19.39153779  F
Ag      10.22122851       3.09750000      20.85171329  F
Ag       7.30087750       3.09750000      20.85171329  F
Ag       8.76105301       1.03250000      19.39153779  F
Ag       5.84070200       5.16250000      13.55083578  F
Ag      10.22122851       7.22750000      15.01101128  F
Ag       7.30087750       7.22750000      15.01101128  F
Ag       8.76105301       5.16250000      13.55083578  F
Ag       8.76105301       5.16250000      16.47118678  F
Ag       7.30087750       7.22750000      17.93136228  F
Ag      10.22122851       7.22750000      17.93136228  F
Ag       5.84070200       5.16250000      16.47118678  F
Ag      11.68140401       5.16250000      19.39153779  F
Ag      10.22122851       7.22750000      20.85171329  F
Ag       7.30087750       7.22750000      20.85171329  F
Ag       8.76105301       5.16250000      19.39153779  F
C        2.90070862       4.74494227      23.16683364  T
H        1.86754131       5.11773244      23.31220764  T
H        3.41613954       4.66589524      24.14509923  T
H        3.43542062       5.51479701      22.57150320  T
O        2.90696041       3.48343737      22.52453820  T
