45
Lattice="9.234961 0.0 0.0 7.387969 9.048377 0.0 0.0 0.0 37.587294" Properties=species:S:1:pos:R:3:move_mask:L:1 method=MACE-MP energy=-131.15855407714844 max_force=0.15697507560253143 pbc="T T T"
Ag       1.69307646       0.18850802      13.87433318  F
Ag       3.54006861       2.45060218      13.87433318  F
Ag       8.15754899       4.33568065      14.71736590  F
Ag       6.31055684       2.07358649      14.71736590  F
Ag      10.92803721       3.95866496      15.56039862  F
Ag       9.08104506       1.69657080      15.56039862  F
Ag       4.46356469       3.58164927      16.40343134  F
Ag       2.61657254       1.31955510      16.40343134  F
Ag       7.23405291       3.20463357      17.24646406  F
Ag       5.38706076       0.94253941      17.24646406  F
Ag      10.00454113       2.82761788      18.08949678  F
Ag       8.15754899       0.56552372      18.08949678  F
Ag       3.54006861       2.45060218      18.93252950  F
Ag       1.69307646       0.18850802      18.93252950  F
Ag       6.31055684       2.07358649      19.77556222  F
Ag       8.15754899       4.33568065      19.77556222  F
Ag       9.08104506       1.69657080      20.61859494  F
Ag      10.92803721       3.95866496      20.61859494  F
Ag       2.61657254       1.31955510      21.46162766  F
Ag       4.46356469       3.58164927      21.46162766  F
Ag       5.38706076       4.71269635      13.87433318  F
Ag       7.23405291       6.97479051      13.87433318  F
Ag      11.85153328       8.85986898      14.71736590  F
Ag      10.00454113       6.59777482      14.71736590  F
Ag      14.62202151       8.48285328      15.56039862  F
Ag      12.77502936       6.22075912      15.56039862  F
Ag       8.15754899       8.10583759      16.40343134  F
Ag       6.31055684       5.84374343      16.40343134  F
Ag      10.92803721       7.72882190      17.24646406  F
Ag       9.08104506       5.46672773      17.24646406  F
Ag      13.69852543       7.35180620      18.08949678  F
Ag      11.85153328       5.08971204      18.08949678  F
Ag       7.23405291       6.97479051      18.93252950  F
Ag       5.38706076       4.71269635      18.93252950  F
Ag      10.00454113       6.59777482      19.77556222  F
Ag      11.85153328       8.85986898      19.77556222  F
Ag      12.77502936       6.22075912      20.61859494  F
Ag      14.62202151       8.48285328      20.61859494  F
Ag       6.31055684       5.84374343      21.46162766  F
Ag       8.15754899       8.10583759      21.46162766  F
C        5.59117538       1.05114686      23.05478309  T
H        4.48560350       0.88842335      23.14560943  T
H        5.97640375       0.09339604      22.59350727  T
H        6.04126803       1.18599825      24.06066896  T
O        5.95582428       2.16388116      22.29955582  T
