53
Lattice="11.681404 0.0 0.0 0.0 8.26 0.0 0.0 0.0 37.300878" Properties=species:S:1:pos:R:3:move_mask:L:1 method=CHGNet energy=-154.28079223632812 max_force=0.19679062068462372 pbc="T T T"
Ag      -0.00000001       1.03250000      13.45652225  F
Ag       4.38052650       3.09750000      14.91669775  F
Ag       1.46017549       3.09750000      14.91669775  F
Ag       2.92035099       1.03250000      13.45652225  F
Ag       2.92035099       1.03250000      16.37687325  F
Ag       1.46017549       3.09750000      17.83704876  F
Ag       4.38052650       3.09750000      17.83704876  F
Ag      -0.00000001       1.03250000      16.37687325  F
Ag       5.84070200       1.03250000      19.29722426  F
Ag       4.38052650       3.09750000      20.75739976  F
Ag       1.46017549       3.09750000      20.75739976  F
Ag       2.92035099       1.03250000      19.29722426  F
Ag      -0.00000001       5.16250000      13.45652225  F
Ag       4.38052650       7.22750000      14.91669775  F
Ag       1.46017549       7.22750000      14.91669775  F
Ag       2.92035099       5.16250000      13.45652225  F
Ag       2.92035099       5.16250000      16.37687325  F
Ag       1.46017549       7.22750000      17.83704876  F
Ag       4.38052650       7.22750000      17.83704876  F
Ag      -0.00000001       5.16250000      16.37687325  F
Ag       5.84070200       5.16250000      19.29722426  F
Ag       4.38052650       7.22750000      20.75739976  F
Ag       1.46017549       7.22750000      20.75739976  F
Ag       2.92035099       5.16250000      19.29722426  F
Ag       5.84070200       1.03250000      13.45652225  F
Ag      10.22122851       3.09750000      14.91669775  F
Ag       7.30087750       3.09750000      14.91669775  F
Ag       8.76105301       1.03250000      13.45652225  F
Ag       8.76105301       1.03250000      16.37687325  F
Ag       7.30087750       3.09750000      17.83704876  F
Ag      10.22122851       3.09750000      17.83704876  F
Ag       5.84070200       1.03250000      16.37687325  F
Ag      11.68140401       1.03250000      19.29722426  F
Ag      10.22122851       3.09750000      20.75739976  F
Ag       7.30087750       3.09750000      20.75739976  F
Ag       8.76105301       1.03250000      19.29722426  F
Ag       5.84070200       5.16250000      13.45652225  F
Ag      10.22122851       7.22750000      14.91669775  F
Ag       7.30087750       7.22750000      14.91669775  F
Ag       8.76105301       5.16250000      13.45652225  F
Ag       8.76105301       5.16250000      16.37687325  F
Ag       7.30087750       7.22750000      17.83704876  F
Ag      10.22122851       7.22750000      17.83704876  F
Ag       5.84070200       5.16250000      16.37687325  F
Ag      11.68140401       5.16250000      19.29722426  F
Ag      10.22122851       7.22750000      20.75739976  F
Ag       7.30087750       7.22750000      20.75739976  F
Ag       8.76105301       5.16250000      19.29722426  F
C        5.30634297       2.11489623      23.47910832  T
H        4.19654913       2.09911355      23.52812255  T
H        5.64765833       1.20738203      24.01627928  T
H        5.66655075       3.00543453      24.03300195  T
O        5.75365335       2.08426271      22.14048304  T
