53
Lattice="11.681404 0.0 0.0 0.0 8.26 0.0 0.0 0.0 37.300878" Properties=species:S:1:pos:R:3:move_mask:L:1 method=CHGNet energy=-153.61843872070312 max_force=0.1852874457836151 pbc="T T T"
Ag      -0.00000001       1.03250000      13.91356947  F
Ag       4.38052650       3.09750000      15.37374497  F
Ag       1.46017549       3.09750000      15.37374497  F
Ag       2.92035099       1.03250000      13.91356947  F
Ag       2.92035099       1.03250000      16.83392048  F
Ag       1.46017549       3.09750000      18.29409598  F
Ag       4.38052650       3.09750000      18.29409598  F
Ag      -0.00000001       1.03250000      16.83392048  F
Ag       5.84070200       1.03250000      19.75427148  F
Ag       4.38052650       3.09750000      21.21444699  F
Ag       1.46017549       3.09750000      21.21444699  F
Ag       2.92035099       1.03250000      19.75427148  F
Ag      -0.00000001       5.16250000      13.91356947  F
Ag       4.38052650       7.22750000      15.37374497  F
Ag       1.46017549       7.22750000      15.37374497  F
Ag       2.92035099       5.16250000      13.91356947  F
Ag       2.92035099       5.16250000      16.83392048  F
Ag       1.46017549       7.22750000      18.29409598  F
Ag       4.38052650       7.22750000      18.29409598  F
Ag      -0.00000001       5.16250000      16.83392048  F
Ag       5.84070200       5.16250000      19.75427148  F
Ag       4.38052650       7.22750000      21.21444699  F
Ag       1.46017549       7.22750000      21.21444699  F
Ag       2.92035099       5.16250000      19.75427148  F
Ag       5.84070200       1.03250000      13.91356947  F
Ag      10.22122851       3.09750000      15.37374497  F
Ag       7.30087750       3.09750000      15.37374497  F
Ag       8.76105301       1.03250000      13.91356947  F
Ag       8.76105301       1.03250000      16.83392048  F
Ag       7.30087750       3.09750000      18.29409598  F
Ag      10.22122851       3.09750000      18.29409598  F
Ag       5.84070200       1.03250000      16.83392048  F
Ag      11.68140401       1.03250000      19.75427148  F
Ag      10.22122851       3.09750000      21.21444699  F
Ag       7.30087750       3.09750000      21.21444699  F
Ag       8.76105301       1.03250000      19.75427148  F
Ag       5.84070200       5.16250000      13.91356947  F
Ag      10.22122851       7.22750000      15.37374497  F
Ag       7.30087750       7.22750000      15.37374497  F
Ag       8.76105301       5.16250000      13.91356947  F
Ag       8.76105301       5.16250000      16.83392048  F
Ag       7.30087750       7.22750000      18.29409598  F
Ag      10.22122851       7.22750000      18.29409598  F
Ag       5.84070200       5.16250000      16.83392048  F
Ag      11.68140401       5.16250000      19.75427148  F
Ag      10.22122851       7.22750000      21.21444699  F
Ag       7.30087750       7.22750000      21.21444699  F
Ag       8.76105301       5.16250000      19.75427148  F
C        5.69314254       3.29757357      23.73413982  T
H        6.52977871       4.00362753      23.49968712  T
H        4.74906516       4.83881610      21.17685049  T
H        4.72285076       3.73568231      24.07157478  T
O        5.81427803       2.07743634      23.55809433  T
