45
Lattice="9.234961 0.0 0.0 7.387969 9.048377 0.0 0.0 0.0 37.587294" Properties=species:S:1:pos:R:3:move_mask:L:1 method=GFN1-xTB energy=-4450.364199188426 max_force=0.18097667985604945 pbc="T T T"
Ag       2.29491635       0.18850802      13.38816103  F
Ag       4.14190850       2.45060218      13.38816103  F
Ag       8.75938887       4.33568065      14.23119375  F
Ag       6.91239672       2.07358649      14.23119375  F
Ag      11.52987710       3.95866496      15.07422647  F
Ag       9.68288495       1.69657080      15.07422647  F
Ag       5.06540457       3.58164927      15.91725919  F
Ag       3.21841242       1.31955510      15.91725919  F
Ag       7.83589280       3.20463357      16.76029191  F
Ag       5.98890065       0.94253941      16.76029191  F
Ag      10.60638102       2.82761788      17.60332463  F
Ag       8.75938887       0.56552372      17.60332463  F
Ag       4.14190850       2.45060218      18.44635735  F
Ag       2.29491635       0.18850802      18.44635735  F
Ag       6.91239672       2.07358649      19.28939007  F
Ag       8.75938887       4.33568065      19.28939007  F
Ag       9.68288495       1.69657080      20.13242279  F
Ag      11.52987710       3.95866496      20.13242279  F
Ag       3.21841242       1.31955510      20.97545551  F
Ag       5.06540457       3.58164927      20.97545551  F
Ag       5.98890065       4.71269635      13.38816103  F
Ag       7.83589280       6.97479051      13.38816103  F
Ag      12.45337317       8.85986898      14.23119375  F
Ag      10.60638102       6.59777482      14.23119375  F
Ag      15.22386139       8.48285328      15.07422647  F
Ag      13.37686925       6.22075912      15.07422647  F
Ag       8.75938887       8.10583759      15.91725919  F
Ag       6.91239672       5.84374343      15.91725919  F
Ag      11.52987710       7.72882190      16.76029191  F
Ag       9.68288495       5.46672773      16.76029191  F
Ag      14.30036532       7.35180620      17.60332463  F
Ag      12.45337317       5.08971204      17.60332463  F
Ag       7.83589280       6.97479051      18.44635735  F
Ag       5.98890065       4.71269635      18.44635735  F
Ag      10.60638102       6.59777482      19.28939007  F
Ag      12.45337317       8.85986898      19.28939007  F
Ag      13.37686925       6.22075912      20.13242279  F
Ag      15.22386139       8.48285328      20.13242279  F
Ag       6.91239672       5.84374343      20.97545551  F
Ag       8.75938887       8.10583759      20.97545551  F
C        4.01880383       2.59654439      23.92488654  T
H        5.08659276       2.88256182      23.87887667  T
H        3.42547297       3.53055940      23.84441689  T
H        3.84843731       2.18018866      24.93219889  T
O        3.70622673       1.65360666      22.95899934  T
