53
Lattice="11.681404 0.0 0.0 0.0 8.26 0.0 0.0 0.0 37.300878" Properties=species:S:1:pos:R:3:move_mask:L:1 method=MACE-MP energy=-150.83782958984375 max_force=0.19519641995429993 pbc="T T T"
Ag      -0.00000001       1.03250000      14.28092353  F
Ag       4.38052650       3.09750000      15.74109903  F
Ag       1.46017549       3.09750000      15.74109903  F
Ag       2.92035099       1.03250000      14.28092353  F
Ag       2.92035099       1.03250000      17.20127453  F
Ag       1.46017549       3.09750000      18.66145004  F
Ag       4.38052650       3.09750000      18.66145004  F
Ag      -0.00000001       1.03250000      17.20127453  F
Ag       5.84070200       1.03250000      20.12162554  F
Ag       4.38052650       3.09750000      21.58180104  F
Ag       1.46017549       3.09750000      21.58180104  F
Ag       2.92035099       1.03250000      20.12162554  F
Ag      -0.00000001       5.16250000      14.28092353  F
Ag       4.38052650       7.22750000      15.74109903  F
Ag       1.46017549       7.22750000      15.74109903  F
Ag       2.92035099       5.16250000      14.28092353  F
Ag       2.92035099       5.16250000      17.20127453  F
Ag       1.46017549       7.22750000      18.66145004  F
Ag       4.38052650       7.22750000      18.66145004  F
Ag      -0.00000001       5.16250000      17.20127453  F
Ag       5.84070200       5.16250000      20.12162554  F
Ag       4.38052650       7.22750000      21.58180104  F
Ag       1.46017549       7.22750000      21.58180104  F
Ag       2.92035099       5.16250000      20.12162554  F
Ag       5.84070200       1.03250000      14.28092353  F
Ag      10.22122851       3.09750000      15.74109903  F
Ag       7.30087750       3.09750000      15.74109903  F
Ag       8.76105301       1.03250000      14.28092353  F
Ag       8.76105301       1.03250000      17.20127453  F
Ag       7.30087750       3.09750000      18.66145004  F
Ag      10.22122851       3.09750000      18.66145004  F
Ag       5.84070200       1.03250000      17.20127453  F
Ag      11.68140401       1.03250000      20.12162554  F
Ag      10.22122851       3.09750000      21.58180104  F
Ag       7.30087750       3.09750000      21.58180104  F
Ag       8.76105301       1.03250000      20.12162554  F
Ag       5.84070200       5.16250000      14.28092353  F
Ag      10.22122851       7.22750000      15.74109903  F
Ag       7.30087750       7.22750000      15.74109903  F
Ag       8.76105301       5.16250000      14.28092353  F
Ag       8.76105301       5.16250000      17.20127453  F
Ag       7.30087750       7.22750000      18.66145004  F
Ag      10.22122851       7.22750000      18.66145004  F
Ag       5.84070200       5.16250000      17.20127453  F
Ag      11.68140401       5.16250000      20.12162554  F
Ag      10.22122851       7.22750000      21.58180104  F
Ag       7.30087750       7.22750000      21.58180104  F
Ag       8.76105301       5.16250000      20.12162554  F
C        5.72032403       1.49707454      23.59449168  T
H        4.77584573       1.92772280      23.98442919  T
H        6.68693477       2.02104297      23.75824706  T
H        5.83742742       2.87752391      20.56326566  T
O        5.72761470       0.27764815      23.27909909  T
