53
Lattice="11.681404 0.0 0.0 0.0 8.26 0.0 0.0 0.0 37.300878" Properties=species:S:1:pos:R:3:move_mask:L:1 method=CHGNet energy=-153.73175048828125 max_force=0.16906994581222534 pbc="T T T"
Ag      -0.00000001       1.03250000      14.28092353  F
Ag       4.38052650       3.09750000      15.74109903  F
Ag       1.46017549       3.09750000      15.74109903  F
Ag       2.92035099       1.03250000      14.28092353  F
Ag       2.92035099       1.03250000      17.20127453  F
Ag       1.46017549       3.09750000      18.66145004  F
Ag       4.38052650       3.09750000      18.66145004  F
Ag      -0.00000001       1.03250000      17.20127453  F
Ag       5.84070200       1.03250000      20.12162554  F
Ag       4.38052650       3.09750000      21.58180104  F
Ag       1.46017549       3.09750000      21.58180104  F
Ag       2.92035099       1.03250000      20.12162554  F
Ag      -0.00000001       5.16250000      14.28092353  F
Ag       4.38052650       7.22750000      15.74109903  F
Ag       1.46017549       7.22750000      15.74109903  F
Ag       2.92035099       5.16250000      14.28092353  F
Ag       2.92035099       5.16250000      17.20127453  F
Ag       1.46017549       7.22750000      18.66145004  F
Ag       4.38052650       7.22750000      18.66145004  F
Ag      -0.00000001       5.16250000      17.20127453  F
Ag       5.84070200       5.16250000      20.12162554  F
Ag       4.38052650       7.22750000      21.58180104  F
Ag       1.46017549       7.22750000      21.58180104  F
Ag       2.92035099       5.16250000      20.12162554  F
Ag       5.84070200       1.03250000      14.28092353  F
Ag      10.22122851       3.09750000      15.74109903  F
Ag       7.30087750       3.09750000      15.74109903  F
Ag       8.76105301       1.03250000      14.28092353  F
Ag       8.76105301       1.03250000      17.20127453  F
Ag       7.30087750       3.09750000      18.66145004  F
Ag      10.22122851       3.09750000      18.66145004  F
Ag       5.84070200       1.03250000      17.20127453  F
Ag      11.68140401       1.03250000      20.12162554  F
Ag      10.22122851       3.09750000      21.58180104  F
Ag       7.30087750       3.09750000      21.58180104  F
Ag       8.76105301       1.03250000      20.12162554  F
Ag       5.84070200       5.16250000      14.28092353  F
Ag      10.22122851       7.22750000      15.74109903  F
Ag       7.30087750       7.22750000      15.74109903  F
Ag       8.76105301       5.16250000      14.28092353  F
Ag       8.76105301       5.16250000      17.20127453  F
Ag       7.30087750       7.22750000      18.66145004  F
Ag      10.22122851       7.22750000      18.66145004  F
Ag       5.84070200       5.16250000      17.20127453  F
Ag      11.68140401       5.16250000      20.12162554  F
Ag      10.22122851       7.22750000      21.58180104  F
Ag       7.30087750       7.22750000      21.58180104  F
Ag       8.76105301       5.16250000      20.12162554  F
C        5.70351727       1.22286313      23.83779939  T
H        4.70503077       1.59514493      24.17523609  T
H        6.61026694       1.87561527      23.93242844  T
H        5.88474170       3.20568954      20.32104230  T
O        5.80510256       0.07398092      23.33739308  T
