53
Lattice="11.681404 0.0 0.0 0.0 8.26 0.0 0.0 0.0 37.300878" Properties=species:S:1:pos:R:3:move_mask:L:1 method=CHGNet energy=-154.261474609375 max_force=0.17654648423194885 pbc="T T T"
Ag      -0.00000001       1.48397465      13.82156612  F
Ag       4.38052650       3.54897465      15.28174163  F
Ag       1.46017549       3.54897465      15.28174163  F
Ag       2.92035099       1.48397465      13.82156612  F
Ag       2.92035099       1.48397465      16.74191713  F
Ag       1.46017549       3.54897465      18.20209263  F
Ag       4.38052650       3.54897465      18.20209263  F
Ag      -0.00000001       1.48397465      16.74191713  F
Ag       5.84070200       1.48397465      19.66226813  F
Ag       4.38052650       3.54897465      21.12244364  F
Ag       1.46017549       3.54897465      21.12244364  F
Ag       2.92035099       1.48397465      19.66226813  F
Ag      -0.00000001       5.61397465      13.82156612  F
Ag       4.38052650       7.67897465      15.28174163  F
Ag       1.46017549       7.67897465      15.28174163  F
Ag       2.92035099       5.61397465      13.82156612  F
Ag       2.92035099       5.61397465      16.74191713  F
Ag       1.46017549       7.67897465      18.20209263  F
Ag       4.38052650       7.67897465      18.20209263  F
Ag      -0.00000001       5.61397465      16.74191713  F
Ag       5.84070200       5.61397465      19.66226813  F
Ag       4.38052650       7.67897465      21.12244364  F
Ag       1.46017549       7.67897465      21.12244364  F
Ag       2.92035099       5.61397465      19.66226813  F
Ag       5.84070200       1.48397465      13.82156612  F
Ag      10.22122851       3.54897465      15.28174163  F
Ag       7.30087750       3.54897465      15.28174163  F
Ag       8.76105301       1.48397465      13.82156612  F
Ag       8.76105301       1.48397465      16.74191713  F
Ag       7.30087750       3.54897465      18.20209263  F
Ag      10.22122851       3.54897465      18.20209263  F
Ag       5.84070200       1.48397465      16.74191713  F
Ag      11.68140401       1.48397465      19.66226813  F
Ag      10.22122851       3.54897465      21.12244364  F
Ag       7.30087750       3.54897465      21.12244364  F
Ag       8.76105301       1.48397465      19.66226813  F
Ag       5.84070200       5.61397465      13.82156612  F
Ag      10.22122851       7.67897465      15.28174163  F
Ag       7.30087750       7.67897465      15.28174163  F
Ag       8.76105301       5.61397465      13.82156612  F
Ag       8.76105301       5.61397465      16.74191713  F
Ag       7.30087750       7.67897465      18.20209263  F
Ag      10.22122851       7.67897465      18.20209263  F
Ag       5.84070200       5.61397465      16.74191713  F
Ag      11.68140401       5.61397465      19.66226813  F
Ag      10.22122851       7.67897465      21.12244364  F
Ag       7.30087750       7.67897465      21.12244364  F
Ag       8.76105301       5.61397465      19.66226813  F
C        4.37134441       1.43140643      23.58115638  T
H        5.40620704       1.36912557      23.97965998  T
H        3.90991536       2.35139616      23.99062127  T
H        3.80768148       0.57157816      24.00216467  T
O        4.34343089       1.45268873      22.17770272  T
