45
Lattice="9.234961 0.0 0.0 7.387969 9.048377 0.0 0.0 0.0 37.587294" Properties=species:S:1:pos:R:3:move_mask:L:1 method=GFN1-xTB energy=-4450.812227898612 max_force=0.18638009832292857 pbc="T T T"
Ag       2.65375131       0.18850802      13.83341650  F
Ag       4.50074346       2.45060218      13.83341650  F
Ag       9.11822383       4.33568065      14.67644922  F
Ag       7.27123168       2.07358649      14.67644922  F
Ag      11.88871205       3.95866496      15.51948194  F
Ag      10.04171990       1.69657080      15.51948194  F
Ag       5.42423953       3.58164927      16.36251466  F
Ag       3.57724738       1.31955510      16.36251466  F
Ag       8.19472775       3.20463357      17.20554738  F
Ag       6.34773560       0.94253941      17.20554738  F
Ag      10.96521598       2.82761788      18.04858010  F
Ag       9.11822383       0.56552372      18.04858010  F
Ag       4.50074346       2.45060218      18.89161282  F
Ag       2.65375131       0.18850802      18.89161282  F
Ag       7.27123168       2.07358649      19.73464554  F
Ag       9.11822383       4.33568065      19.73464554  F
Ag      10.04171990       1.69657080      20.57767826  F
Ag      11.88871205       3.95866496      20.57767826  F
Ag       3.57724738       1.31955510      21.42071098  F
Ag       5.42423953       3.58164927      21.42071098  F
Ag       6.34773560       4.71269635      13.83341650  F
Ag       8.19472775       6.97479051      13.83341650  F
Ag      12.81220813       8.85986898      14.67644922  F
Ag      10.96521598       6.59777482      14.67644922  F
Ag      15.58269635       8.48285328      15.51948194  F
Ag      13.73570420       6.22075912      15.51948194  F
Ag       9.11822383       8.10583759      16.36251466  F
Ag       7.27123168       5.84374343      16.36251466  F
Ag      11.88871205       7.72882190      17.20554738  F
Ag      10.04171990       5.46672773      17.20554738  F
Ag      14.65920028       7.35180620      18.04858010  F
Ag      12.81220813       5.08971204      18.04858010  F
Ag       8.19472775       6.97479051      18.89161282  F
Ag       6.34773560       4.71269635      18.89161282  F
Ag      10.96521598       6.59777482      19.73464554  F
Ag      12.81220813       8.85986898      19.73464554  F
Ag      13.73570420       6.22075912      20.57767826  F
Ag      15.58269635       8.48285328      20.57767826  F
Ag       7.27123168       5.84374343      21.42071098  F
Ag       9.11822383       8.10583759      21.42071098  F
C        3.74191984       3.59176488      24.27474858  T
H        3.19303427       2.91967456      24.95671650  T
H        4.60573116       4.00681677      24.82145344  T
H        3.08853664       4.45732518      24.05673574  T
O        4.13407497       2.92140021      23.11270108  T
