53
Lattice="11.681404 0.0 0.0 0.0 8.26 0.0 0.0 0.0 37.300878" Properties=species:S:1:pos:R:3:move_mask:L:1 method=CHGNet energy=-153.6220703125 max_force=0.18956245481967926 pbc="T T T"
Ag      -0.00000001       1.03250000      13.91587965  F
Ag       4.38052650       3.09750000      15.37605515  F
Ag       1.46017549       3.09750000      15.37605515  F
Ag       2.92035099       1.03250000      13.91587965  F
Ag       2.92035099       1.03250000      16.83623066  F
Ag       1.46017549       3.09750000      18.29640616  F
Ag       4.38052650       3.09750000      18.29640616  F
Ag      -0.00000001       1.03250000      16.83623066  F
Ag       5.84070200       1.03250000      19.75658166  F
Ag       4.38052650       3.09750000      21.21675717  F
Ag       1.46017549       3.09750000      21.21675717  F
Ag       2.92035099       1.03250000      19.75658166  F
Ag      -0.00000001       5.16250000      13.91587965  F
Ag       4.38052650       7.22750000      15.37605515  F
Ag       1.46017549       7.22750000      15.37605515  F
Ag       2.92035099       5.16250000      13.91587965  F
Ag       2.92035099       5.16250000      16.83623066  F
Ag       1.46017549       7.22750000      18.29640616  F
Ag       4.38052650       7.22750000      18.29640616  F
Ag      -0.00000001       5.16250000      16.83623066  F
Ag       5.84070200       5.16250000      19.75658166  F
Ag       4.38052650       7.22750000      21.21675717  F
Ag       1.46017549       7.22750000      21.21675717  F
Ag       2.92035099       5.16250000      19.75658166  F
Ag       5.84070200       1.03250000      13.91587965  F
Ag      10.22122851       3.09750000      15.37605515  F
Ag       7.30087750       3.09750000      15.37605515  F
Ag       8.76105301       1.03250000      13.91587965  F
Ag       8.76105301       1.03250000      16.83623066  F
Ag       7.30087750       3.09750000      18.29640616  F
Ag      10.22122851       3.09750000      18.29640616  F
Ag       5.84070200       1.03250000      16.83623066  F
Ag      11.68140401       1.03250000      19.75658166  F
Ag      10.22122851       3.09750000      21.21675717  F
Ag       7.30087750       3.09750000      21.21675717  F
Ag       8.76105301       1.03250000      19.75658166  F
Ag       5.84070200       5.16250000      13.91587965  F
Ag      10.22122851       7.22750000      15.37605515  F
Ag       7.30087750       7.22750000      15.37605515  F
Ag       8.76105301       5.16250000      13.91587965  F
Ag       8.76105301       5.16250000      16.83623066  F
Ag       7.30087750       7.22750000      18.29640616  F
Ag      10.22122851       7.22750000      18.29640616  F
Ag       5.84070200       5.16250000      16.83623066  F
Ag      11.68140401       5.16250000      19.75658166  F
Ag      10.22122851       7.22750000      21.21675717  F
Ag       7.30087750       7.22750000      21.21675717  F
Ag       8.76105301       5.16250000      19.75658166  F
C        5.37142135       3.42620650      23.98132469  T
H        4.39892142       3.91983257      23.73689060  T
H        6.17395545       4.06828167      24.40919619  T
H        5.93570357       4.31202416      21.38193219  T
O        5.57444310       2.23626244      23.70383118  T
