53
Lattice="11.681404 0.0 0.0 0.0 8.26 0.0 0.0 0.0 37.300878" Properties=species:S:1:pos:R:3:move_mask:L:1 method=MACE-MP energy=-152.15231323242188 max_force=0.13684435188770294 pbc="T T T"
Ag      -0.00000001       1.03250000      13.91587965  F
Ag       4.38052650       3.09750000      15.37605515  F
Ag       1.46017549       3.09750000      15.37605515  F
Ag       2.92035099       1.03250000      13.91587965  F
Ag       2.92035099       1.03250000      16.83623066  F
Ag       1.46017549       3.09750000      18.29640616  F
Ag       4.38052650       3.09750000      18.29640616  F
Ag      -0.00000001       1.03250000      16.83623066  F
Ag       5.84070200       1.03250000      19.75658166  F
Ag       4.38052650       3.09750000      21.21675717  F
Ag       1.46017549       3.09750000      21.21675717  F
Ag       2.92035099       1.03250000      19.75658166  F
Ag      -0.00000001       5.16250000      13.91587965  F
Ag       4.38052650       7.22750000      15.37605515  F
Ag       1.46017549       7.22750000      15.37605515  F
Ag       2.92035099       5.16250000      13.91587965  F
Ag       2.92035099       5.16250000      16.83623066  F
Ag       1.46017549       7.22750000      18.29640616  F
Ag       4.38052650       7.22750000      18.29640616  F
Ag      -0.00000001       5.16250000      16.83623066  F
Ag       5.84070200       5.16250000      19.75658166  F
Ag       4.38052650       7.22750000      21.21675717  F
Ag       1.46017549       7.22750000      21.21675717  F
Ag       2.92035099       5.16250000      19.75658166  F
Ag       5.84070200       1.03250000      13.91587965  F
Ag      10.22122851       3.09750000      15.37605515  F
Ag       7.30087750       3.09750000      15.37605515  F
Ag       8.76105301       1.03250000      13.91587965  F
Ag       8.76105301       1.03250000      16.83623066  F
Ag       7.30087750       3.09750000      18.29640616  F
Ag      10.22122851       3.09750000      18.29640616  F
Ag       5.84070200       1.03250000      16.83623066  F
Ag      11.68140401       1.03250000      19.75658166  F
Ag      10.22122851       3.09750000      21.21675717  F
Ag       7.30087750       3.09750000      21.21675717  F
Ag       8.76105301       1.03250000      19.75658166  F
Ag       5.84070200       5.16250000      13.91587965  F
Ag      10.22122851       7.22750000      15.37605515  F
Ag       7.30087750       7.22750000      15.37605515  F
Ag       8.76105301       5.16250000      13.91587965  F
Ag       8.76105301       5.16250000      16.83623066  F
Ag       7.30087750       7.22750000      18.29640616  F
Ag      10.22122851       7.22750000      18.29640616  F
Ag       5.84070200       5.16250000      16.83623066  F
Ag      11.68140401       5.16250000      19.75658166  F
Ag      10.22122851       7.22750000      21.21675717  F
Ag       7.30087750       7.22750000      21.21675717  F
Ag       8.76105301       5.16250000      19.75658166  F
C        5.65398069       3.84569386      23.99647599  T
H        4.59899663       3.90265987      24.33522579  T
H        6.22389529       3.45510850      24.86051105  T
H        6.02496778       4.86235258      23.74341696  T
O        5.79347103       2.92804843      22.93486316  T
