53
Lattice="11.681404 0.0 0.0 0.0 8.26 0.0 0.0 0.0 37.300878" Properties=species:S:1:pos:R:3:move_mask:L:1 method=CHGNet energy=-154.07656860351562 max_force=0.16501455008983612 pbc="T T T"
Ag      -0.00000001       1.03250000      13.55083578  F
Ag       4.38052650       3.09750000      15.01101128  F
Ag       1.46017549       3.09750000      15.01101128  F
Ag       2.92035099       1.03250000      13.55083578  F
Ag       2.92035099       1.03250000      16.47118678  F
Ag       1.46017549       3.09750000      17.93136228  F
Ag       4.38052650       3.09750000      17.93136228  F
Ag      -0.00000001       1.03250000      16.47118678  F
Ag       5.84070200       1.03250000      19.39153779  F
Ag       4.38052650       3.09750000      20.85171329  F
Ag       1.46017549       3.09750000      20.85171329  F
Ag       2.92035099       1.03250000      19.39153779  F
Ag      -0.00000001       5.16250000      13.55083578  F
Ag       4.38052650       7.22750000      15.01101128  F
Ag       1.46017549       7.22750000      15.01101128  F
Ag       2.92035099       5.16250000      13.55083578  F
Ag       2.92035099       5.16250000      16.47118678  F
Ag       1.46017549       7.22750000      17.93136228  F
Ag       4.38052650       7.22750000      17.93136228  F
Ag      -0.00000001       5.16250000      16.47118678  F
Ag       5.84070200       5.16250000      19.39153779  F
Ag       4.38052650       7.22750000      20.85171329  F
Ag       1.46017549       7.22750000      20.85171329  F
Ag       2.92035099       5.16250000      19.39153779  F
Ag       5.84070200       1.03250000      13.55083578  F
Ag      10.22122851       3.09750000      15.01101128  F
Ag       7.30087750       3.09750000      15.01101128  F
Ag       8.76105301       1.03250000      13.55083578  F
Ag       8.76105301       1.03250000      16.47118678  F
Ag       7.30087750       3.09750000      17.93136228  F
Ag      10.22122851       3.09750000      17.93136228  F
Ag       5.84070200       1.03250000      16.47118678  F
Ag      11.68140401       1.03250000      19.39153779  F
Ag      10.22122851       3.09750000      20.85171329  F
Ag       7.30087750       3.09750000      20.85171329  F
Ag       8.76105301       1.03250000      19.39153779  F
Ag       5.84070200       5.16250000      13.55083578  F
Ag      10.22122851       7.22750000      15.01101128  F
Ag       7.30087750       7.22750000      15.01101128  F
Ag       8.76105301       5.16250000      13.55083578  F
Ag       8.76105301       5.16250000      16.47118678  F
Ag       7.30087750       7.22750000      17.93136228  F
Ag      10.22122851       7.22750000      17.93136228  F
Ag       5.84070200       5.16250000      16.47118678  F
Ag      11.68140401       5.16250000      19.39153779  F
Ag      10.22122851       7.22750000      20.85171329  F
Ag       7.30087750       7.22750000      20.85171329  F
Ag       8.76105301       5.16250000      19.39153779  F
C        4.44496525       4.89285648      23.37216383  T
H        3.43451400       5.33703643      23.21561576  T
H        4.67578201       4.94185817      24.46419567  T
H        5.17115212       5.56846507      22.87071969  T
O        4.53401562       3.56411836      22.94630899  T
