45
Lattice="9.234961 0.0 0.0 7.387969 9.048377 0.0 0.0 0.0 37.587294" Properties=species:S:1:pos:R:3:move_mask:L:1 method=MACE-MP energy=-130.77101135253906 max_force=0.19951453804969788 pbc="T T T"
Ag       0.92569290       0.23142434      14.28217614  F
Ag       2.77268505       2.49351851      14.28217614  F
Ag       7.39016542       4.37859698      15.12520886  F
Ag       5.54317327       2.11650281      15.12520886  F
Ag      10.16065364       4.00158128      15.96824158  F
Ag       8.31366149       1.73948712      15.96824158  F
Ag       3.69618112       3.62456559      16.81127430  F
Ag       1.84918897       1.36247143      16.81127430  F
Ag       6.46666935       3.24754989      17.65430702  F
Ag       4.61967720       0.98545573      17.65430702  F
Ag       9.23715757       2.87053420      18.49733974  F
Ag       7.39016542       0.60844004      18.49733974  F
Ag       2.77268505       2.49351851      19.34037246  F
Ag       0.92569290       0.23142434      19.34037246  F
Ag       5.54317327       2.11650281      20.18340518  F
Ag       7.39016542       4.37859698      20.18340518  F
Ag       8.31366149       1.73948712      21.02643790  F
Ag      10.16065364       4.00158128      21.02643790  F
Ag       1.84918897       1.36247143      21.86947062  F
Ag       3.69618112       3.62456559      21.86947062  F
Ag       4.61967720       4.75561267      14.28217614  F
Ag       6.46666935       7.01770683      14.28217614  F
Ag      11.08414972       8.90278530      15.12520886  F
Ag       9.23715757       6.64069114      15.12520886  F
Ag      13.85463794       8.52576961      15.96824158  F
Ag      12.00764579       6.26367544      15.96824158  F
Ag       7.39016542       8.14875391      16.81127430  F
Ag       5.54317327       5.88665975      16.81127430  F
Ag      10.16065364       7.77173822      17.65430702  F
Ag       8.31366149       5.50964406      17.65430702  F
Ag      12.93114187       7.39472253      18.49733974  F
Ag      11.08414972       5.13262836      18.49733974  F
Ag       6.46666935       7.01770683      19.34037246  F
Ag       4.61967720       4.75561267      19.34037246  F
Ag       9.23715757       6.64069114      20.18340518  F
Ag      11.08414972       8.90278530      20.18340518  F
Ag      12.00764579       6.26367544      21.02643790  F
Ag      13.85463794       8.52576961      21.02643790  F
Ag       5.54317327       5.88665975      21.86947062  F
Ag       7.39016542       8.14875391      21.86947062  F
C        7.82026821       0.70346394      24.08398577  T
H        6.80862321       0.57221676      24.53880615  T
H        8.11150909      -0.29515927      23.60897413  T
H        8.56669244       0.92325867      24.88282978  T
O        7.76565400       1.78303884      23.21288611  T
