45
Lattice="9.234961 0.0 0.0 7.387969 9.048377 0.0 0.0 0.0 37.587294" Properties=species:S:1:pos:R:3:move_mask:L:1 method=GFN1-xTB energy=-4450.525593009279 max_force=0.17381476703133358 pbc="T T T"
Ag       1.23086730       0.18850802      13.47050400  F
Ag       3.07785945       2.45060218      13.47050400  F
Ag       7.69533983       4.33568065      14.31353672  F
Ag       5.84834768       2.07358649      14.31353672  F
Ag      10.46582805       3.95866496      15.15656944  F
Ag       8.61883590       1.69657080      15.15656944  F
Ag       4.00135553       3.58164927      15.99960216  F
Ag       2.15436338       1.31955510      15.99960216  F
Ag       6.77184375       3.20463357      16.84263488  F
Ag       4.92485160       0.94253941      16.84263488  F
Ag       9.54233197       2.82761788      17.68566759  F
Ag       7.69533983       0.56552372      17.68566759  F
Ag       3.07785945       2.45060218      18.52870031  F
Ag       1.23086730       0.18850802      18.52870031  F
Ag       5.84834768       2.07358649      19.37173303  F
Ag       7.69533983       4.33568065      19.37173303  F
Ag       8.61883590       1.69657080      20.21476575  F
Ag      10.46582805       3.95866496      20.21476575  F
Ag       2.15436338       1.31955510      21.05779847  F
Ag       4.00135553       3.58164927      21.05779847  F
Ag       4.92485160       4.71269635      13.47050400  F
Ag       6.77184375       6.97479051      13.47050400  F
Ag      11.38932412       8.85986898      14.31353672  F
Ag       9.54233197       6.59777482      14.31353672  F
Ag      14.15981235       8.48285328      15.15656944  F
Ag      12.31282020       6.22075912      15.15656944  F
Ag       7.69533983       8.10583759      15.99960216  F
Ag       5.84834768       5.84374343      15.99960216  F
Ag      10.46582805       7.72882190      16.84263488  F
Ag       8.61883590       5.46672773      16.84263488  F
Ag      13.23631627       7.35180620      17.68566759  F
Ag      11.38932412       5.08971204      17.68566759  F
Ag       6.77184375       6.97479051      18.52870031  F
Ag       4.92485160       4.71269635      18.52870031  F
Ag       9.54233197       6.59777482      19.37173303  F
Ag      11.38932412       8.85986898      19.37173303  F
Ag      12.31282020       6.22075912      20.21476575  F
Ag      14.15981235       8.48285328      20.21476575  F
Ag       5.84834768       5.84374343      21.05779847  F
Ag       7.69533983       8.10583759      21.05779847  F
C        8.44850406       1.86033573      23.42092503  T
H        7.64679831       2.01261572      24.16729064  T
H        8.80252709       0.81359576      23.51974181  T
H        9.31219089       2.49212517      23.71949574  T
O        7.96530460       2.16824647      22.15922352  T
