53
Lattice="11.681404 0.0 0.0 0.0 8.26 0.0 0.0 0.0 37.300878" Properties=species:S:1:pos:R:3:move_mask:L:1 method=MACE-MP energy=-151.6273651123047 max_force=0.10101864486932755 pbc="T T T"
Ag      -0.00000001       1.03250000      13.09147837  F
Ag       4.38052650       3.09750000      14.55165387  F
Ag       1.46017549       3.09750000      14.55165387  F
Ag       2.92035099       1.03250000      13.09147837  F
Ag       2.92035099       1.03250000      16.01182938  F
Ag       1.46017549       3.09750000      17.47200488  F
Ag       4.38052650       3.09750000      17.47200488  F
Ag      -0.00000001       1.03250000      16.01182938  F
Ag       5.84070200       1.03250000      18.93218038  F
Ag       4.38052650       3.09750000      20.39235589  F
Ag       1.46017549       3.09750000      20.39235589  F
Ag       2.92035099       1.03250000      18.93218038  F
Ag      -0.00000001       5.16250000      13.09147837  F
Ag       4.38052650       7.22750000      14.55165387  F
Ag       1.46017549       7.22750000      14.55165387  F
Ag       2.92035099       5.16250000      13.09147837  F
Ag       2.92035099       5.16250000      16.01182938  F
Ag       1.46017549       7.22750000      17.47200488  F
Ag       4.38052650       7.22750000      17.47200488  F
Ag      -0.00000001       5.16250000      16.01182938  F
Ag       5.84070200       5.16250000      18.93218038  F
Ag       4.38052650       7.22750000      20.39235589  F
Ag       1.46017549       7.22750000      20.39235589  F
Ag       2.92035099       5.16250000      18.93218038  F
Ag       5.84070200       1.03250000      13.09147837  F
Ag      10.22122851       3.09750000      14.55165387  F
Ag       7.30087750       3.09750000      14.55165387  F
Ag       8.76105301       1.03250000      13.09147837  F
Ag       8.76105301       1.03250000      16.01182938  F
Ag       7.30087750       3.09750000      17.47200488  F
Ag      10.22122851       3.09750000      17.47200488  F
Ag       5.84070200       1.03250000      16.01182938  F
Ag      11.68140401       1.03250000      18.93218038  F
Ag      10.22122851       3.09750000      20.39235589  F
Ag       7.30087750       3.09750000      20.39235589  F
Ag       8.76105301       1.03250000      18.93218038  F
Ag       5.84070200       5.16250000      13.09147837  F
Ag      10.22122851       7.22750000      14.55165387  F
Ag       7.30087750       7.22750000      14.55165387  F
Ag       8.76105301       5.16250000      13.09147837  F
Ag       8.76105301       5.16250000      16.01182938  F
Ag       7.30087750       7.22750000      17.47200488  F
Ag      10.22122851       7.22750000      17.47200488  F
Ag       5.84070200       5.16250000      16.01182938  F
Ag      11.68140401       5.16250000      18.93218038  F
Ag      10.22122851       7.22750000      20.39235589  F
Ag       7.30087750       7.22750000      20.39235589  F
Ag       8.76105301       5.16250000      18.93218038  F
C        4.38357970       3.13621831      23.94703940  T
H        3.34656178       3.18957147      24.32523383  T
H        4.85400171       2.21756701      24.33863930  T
H        4.97486163       4.00633726      24.28726446  T
O        4.35543767       3.04558342      22.57415122  T
