53
Lattice="11.681404 0.0 0.0 0.0 8.26 0.0 0.0 0.0 37.300878" Properties=species:S:1:pos:R:3:move_mask:L:1 method=CHGNet energy=-153.34678649902344 max_force=0.15713505446910858 pbc="T T T"
Ag      -0.00000001       1.03250000      13.54852560  F
Ag       4.38052650       3.09750000      15.00870110  F
Ag       1.46017549       3.09750000      15.00870110  F
Ag       2.92035099       1.03250000      13.54852560  F
Ag       2.92035099       1.03250000      16.46887660  F
Ag       1.46017549       3.09750000      17.92905211  F
Ag       4.38052650       3.09750000      17.92905211  F
Ag      -0.00000001       1.03250000      16.46887660  F
Ag       5.84070200       1.03250000      19.38922761  F
Ag       4.38052650       3.09750000      20.84940311  F
Ag       1.46017549       3.09750000      20.84940311  F
Ag       2.92035099       1.03250000      19.38922761  F
Ag      -0.00000001       5.16250000      13.54852560  F
Ag       4.38052650       7.22750000      15.00870110  F
Ag       1.46017549       7.22750000      15.00870110  F
Ag       2.92035099       5.16250000      13.54852560  F
Ag       2.92035099       5.16250000      16.46887660  F
Ag       1.46017549       7.22750000      17.92905211  F
Ag       4.38052650       7.22750000      17.92905211  F
Ag      -0.00000001       5.16250000      16.46887660  F
Ag       5.84070200       5.16250000      19.38922761  F
Ag       4.38052650       7.22750000      20.84940311  F
Ag       1.46017549       7.22750000      20.84940311  F
Ag       2.92035099       5.16250000      19.38922761  F
Ag       5.84070200       1.03250000      13.54852560  F
Ag      10.22122851       3.09750000      15.00870110  F
Ag       7.30087750       3.09750000      15.00870110  F
Ag       8.76105301       1.03250000      13.54852560  F
Ag       8.76105301       1.03250000      16.46887660  F
Ag       7.30087750       3.09750000      17.92905211  F
Ag      10.22122851       3.09750000      17.92905211  F
Ag       5.84070200       1.03250000      16.46887660  F
Ag      11.68140401       1.03250000      19.38922761  F
Ag      10.22122851       3.09750000      20.84940311  F
Ag       7.30087750       3.09750000      20.84940311  F
Ag       8.76105301       1.03250000      19.38922761  F
Ag       5.84070200       5.16250000      13.54852560  F
Ag      10.22122851       7.22750000      15.00870110  F
Ag       7.30087750       7.22750000      15.00870110  F
Ag       8.76105301       5.16250000      13.54852560  F
Ag       8.76105301       5.16250000      16.46887660  F
Ag       7.30087750       7.22750000      17.92905211  F
Ag      10.22122851       7.22750000      17.92905211  F
Ag       5.84070200       5.16250000      16.46887660  F
Ag      11.68140401       5.16250000      19.38922761  F
Ag      10.22122851       7.22750000      20.84940311  F
Ag       7.30087750       7.22750000      20.84940311  F
Ag       8.76105301       5.16250000      19.38922761  F
C        6.04230764       6.28667828      23.21667989  T
H        7.05905107       6.75051975      23.38139329  T
H        5.62191219       7.32394674      22.08473135  T
H        5.29508107       6.65599776      23.97001924  T
O        5.97279889       5.06674490      22.81410991  T
