53
Lattice="11.681404 0.0 0.0 0.0 8.26 0.0 0.0 0.0 37.300878" Properties=species:S:1:pos:R:3:move_mask:L:1 method=CHGNet energy=-154.06358337402344 max_force=0.1793879270553589 pbc="T T T"
Ag      -0.00000001       1.03250000      13.54852560  F
Ag       4.38052650       3.09750000      15.00870110  F
Ag       1.46017549       3.09750000      15.00870110  F
Ag       2.92035099       1.03250000      13.54852560  F
Ag       2.92035099       1.03250000      16.46887660  F
Ag       1.46017549       3.09750000      17.92905211  F
Ag       4.38052650       3.09750000      17.92905211  F
Ag      -0.00000001       1.03250000      16.46887660  F
Ag       5.84070200       1.03250000      19.38922761  F
Ag       4.38052650       3.09750000      20.84940311  F
Ag       1.46017549       3.09750000      20.84940311  F
Ag       2.92035099       1.03250000      19.38922761  F
Ag      -0.00000001       5.16250000      13.54852560  F
Ag       4.38052650       7.22750000      15.00870110  F
Ag       1.46017549       7.22750000      15.00870110  F
Ag       2.92035099       5.16250000      13.54852560  F
Ag       2.92035099       5.16250000      16.46887660  F
Ag       1.46017549       7.22750000      17.92905211  F
Ag       4.38052650       7.22750000      17.92905211  F
Ag      -0.00000001       5.16250000      16.46887660  F
Ag       5.84070200       5.16250000      19.38922761  F
Ag       4.38052650       7.22750000      20.84940311  F
Ag       1.46017549       7.22750000      20.84940311  F
Ag       2.92035099       5.16250000      19.38922761  F
Ag       5.84070200       1.03250000      13.54852560  F
Ag      10.22122851       3.09750000      15.00870110  F
Ag       7.30087750       3.09750000      15.00870110  F
Ag       8.76105301       1.03250000      13.54852560  F
Ag       8.76105301       1.03250000      16.46887660  F
Ag       7.30087750       3.09750000      17.92905211  F
Ag      10.22122851       3.09750000      17.92905211  F
Ag       5.84070200       1.03250000      16.46887660  F
Ag      11.68140401       1.03250000      19.38922761  F
Ag      10.22122851       3.09750000      20.84940311  F
Ag       7.30087750       3.09750000      20.84940311  F
Ag       8.76105301       1.03250000      19.38922761  F
Ag       5.84070200       5.16250000      13.54852560  F
Ag      10.22122851       7.22750000      15.00870110  F
Ag       7.30087750       7.22750000      15.00870110  F
Ag       8.76105301       5.16250000      13.54852560  F
Ag       8.76105301       5.16250000      16.46887660  F
Ag       7.30087750       7.22750000      17.92905211  F
Ag      10.22122851       7.22750000      17.92905211  F
Ag       5.84070200       5.16250000      16.46887660  F
Ag      11.68140401       5.16250000      19.38922761  F
Ag      10.22122851       7.22750000      20.84940311  F
Ag       7.30087750       7.22750000      20.84940311  F
Ag       8.76105301       5.16250000      19.38922761  F
C        4.45161460       1.38236965      23.36134992  T
H        3.41580358       0.98015469      23.31265250  T
H        5.07921070       0.68629490      22.75228566  T
H        4.75850077       1.28752842      24.43167742  T
O        4.53889265       2.71516775      22.94942134  T
