45
Lattice="9.234961 0.0 0.0 7.387969 9.048377 0.0 0.0 0.0 37.587294" Properties=species:S:1:pos:R:3:move_mask:L:1 method=CHGNet energy=-132.91952514648438 max_force=0.1931803822517395 pbc="T T T"
Ag       2.09963436       0.18850802      13.02695634  F
Ag       3.94662651       2.45060218      13.02695634  F
Ag       8.56410689       4.33568065      13.86998906  F
Ag       6.71711474       2.07358649      13.86998906  F
Ag      11.33459511       3.95866496      14.71302178  F
Ag       9.48760296       1.69657080      14.71302178  F
Ag       4.87012259       3.58164927      15.55605450  F
Ag       3.02313044       1.31955510      15.55605450  F
Ag       7.64061081       3.20463357      16.39908722  F
Ag       5.79361866       0.94253941      16.39908722  F
Ag      10.41109904       2.82761788      17.24211994  F
Ag       8.56410689       0.56552372      17.24211994  F
Ag       3.94662651       2.45060218      18.08515266  F
Ag       2.09963436       0.18850802      18.08515266  F
Ag       6.71711474       2.07358649      18.92818538  F
Ag       8.56410689       4.33568065      18.92818538  F
Ag       9.48760296       1.69657080      19.77121810  F
Ag      11.33459511       3.95866496      19.77121810  F
Ag       3.02313044       1.31955510      20.61425082  F
Ag       4.87012259       3.58164927      20.61425082  F
Ag       5.79361866       4.71269635      13.02695634  F
Ag       7.64061081       6.97479051      13.02695634  F
Ag      12.25809119       8.85986898      13.86998906  F
Ag      10.41109904       6.59777482      13.86998906  F
Ag      15.02857941       8.48285328      14.71302178  F
Ag      13.18158726       6.22075912      14.71302178  F
Ag       8.56410689       8.10583759      15.55605450  F
Ag       6.71711474       5.84374343      15.55605450  F
Ag      11.33459511       7.72882190      16.39908722  F
Ag       9.48760296       5.46672773      16.39908722  F
Ag      14.10508334       7.35180620      17.24211994  F
Ag      12.25809119       5.08971204      17.24211994  F
Ag       7.64061081       6.97479051      18.08515266  F
Ag       5.79361866       4.71269635      18.08515266  F
Ag      10.41109904       6.59777482      18.92818538  F
Ag      12.25809119       8.85986898      18.92818538  F
Ag      13.18158726       6.22075912      19.77121810  F
Ag      15.02857941       8.48285328      19.77121810  F
Ag       6.71711474       5.84374343      20.61425082  F
Ag       8.56410689       8.10583759      20.61425082  F
C        3.21398458       1.15493676      23.56791098  T
H        2.10678556       1.04351570      23.57938852  T
H        3.56471598       0.71009498      24.52120390  T
H        3.48848452       2.23200840      23.61239262  T
O        3.80186216       0.52767182      22.46389746  T
