53
Lattice="11.681404 0.0 0.0 0.0 8.26 0.0 0.0 0.0 37.300878" Properties=species:S:1:pos:R:3:move_mask:L:1 method=MACE-MP energy=-152.0253143310547 max_force=0.19791634380817413 pbc="T T T"
Ag      -0.00000001       1.03250000      13.45652225  F
Ag       4.38052650       3.09750000      14.91669775  F
Ag       1.46017549       3.09750000      14.91669775  F
Ag       2.92035099       1.03250000      13.45652225  F
Ag       2.92035099       1.03250000      16.37687325  F
Ag       1.46017549       3.09750000      17.83704876  F
Ag       4.38052650       3.09750000      17.83704876  F
Ag      -0.00000001       1.03250000      16.37687325  F
Ag       5.84070200       1.03250000      19.29722426  F
Ag       4.38052650       3.09750000      20.75739976  F
Ag       1.46017549       3.09750000      20.75739976  F
Ag       2.92035099       1.03250000      19.29722426  F
Ag      -0.00000001       5.16250000      13.45652225  F
Ag       4.38052650       7.22750000      14.91669775  F
Ag       1.46017549       7.22750000      14.91669775  F
Ag       2.92035099       5.16250000      13.45652225  F
Ag       2.92035099       5.16250000      16.37687325  F
Ag       1.46017549       7.22750000      17.83704876  F
Ag       4.38052650       7.22750000      17.83704876  F
Ag      -0.00000001       5.16250000      16.37687325  F
Ag       5.84070200       5.16250000      19.29722426  F
Ag       4.38052650       7.22750000      20.75739976  F
Ag       1.46017549       7.22750000      20.75739976  F
Ag       2.92035099       5.16250000      19.29722426  F
Ag       5.84070200       1.03250000      13.45652225  F
Ag      10.22122851       3.09750000      14.91669775  F
Ag       7.30087750       3.09750000      14.91669775  F
Ag       8.76105301       1.03250000      13.45652225  F
Ag       8.76105301       1.03250000      16.37687325  F
Ag       7.30087750       3.09750000      17.83704876  F
Ag      10.22122851       3.09750000      17.83704876  F
Ag       5.84070200       1.03250000      16.37687325  F
Ag      11.68140401       1.03250000      19.29722426  F
Ag      10.22122851       3.09750000      20.75739976  F
Ag       7.30087750       3.09750000      20.75739976  F
Ag       8.76105301       1.03250000      19.29722426  F
Ag       5.84070200       5.16250000      13.45652225  F
Ag      10.22122851       7.22750000      14.91669775  F
Ag       7.30087750       7.22750000      14.91669775  F
Ag       8.76105301       5.16250000      13.45652225  F
Ag       8.76105301       5.16250000      16.37687325  F
Ag       7.30087750       7.22750000      17.83704876  F
Ag      10.22122851       7.22750000      17.83704876  F
Ag       5.84070200       5.16250000      16.37687325  F
Ag      11.68140401       5.16250000      19.29722426  F
Ag      10.22122851       7.22750000      20.75739976  F
Ag       7.30087750       7.22750000      20.75739976  F
Ag       8.76105301       5.16250000      19.29722426  F
C        5.20793864       2.00077518      23.53385889  T
H        4.12699267       2.12246235      23.74269874  T
H        5.59733015       1.16505504      24.14236542  T
H        5.70800493       2.93712011      23.84283120  T
O        5.44028960       1.75720891      22.17411967  T
