45
Lattice="9.234961 0.0 0.0 7.387969 9.048377 0.0 0.0 0.0 37.587294" Properties=species:S:1:pos:R:3:move_mask:L:1 method=MACE-MP energy=-130.8181610107422 max_force=0.16346926987171173 pbc="T T T"
Ag       1.69307646       0.18850802      14.28217614  F
Ag       3.54006861       2.45060218      14.28217614  F
Ag       8.15754899       4.33568065      15.12520886  F
Ag       6.31055684       2.07358649      15.12520886  F
Ag      10.92803721       3.95866496      15.96824158  F
Ag       9.08104506       1.69657080      15.96824158  F
Ag       4.46356469       3.58164927      16.81127430  F
Ag       2.61657254       1.31955510      16.81127430  F
Ag       7.23405291       3.20463357      17.65430702  F
Ag       5.38706076       0.94253941      17.65430702  F
Ag      10.00454113       2.82761788      18.49733974  F
Ag       8.15754899       0.56552372      18.49733974  F
Ag       3.54006861       2.45060218      19.34037246  F
Ag       1.69307646       0.18850802      19.34037246  F
Ag       6.31055684       2.07358649      20.18340518  F
Ag       8.15754899       4.33568065      20.18340518  F
Ag       9.08104506       1.69657080      21.02643790  F
Ag      10.92803721       3.95866496      21.02643790  F
Ag       2.61657254       1.31955510      21.86947062  F
Ag       4.46356469       3.58164927      21.86947062  F
Ag       5.38706076       4.71269635      14.28217614  F
Ag       7.23405291       6.97479051      14.28217614  F
Ag      11.85153328       8.85986898      15.12520886  F
Ag      10.00454113       6.59777482      15.12520886  F
Ag      14.62202151       8.48285328      15.96824158  F
Ag      12.77502936       6.22075912      15.96824158  F
Ag       8.15754899       8.10583759      16.81127430  F
Ag       6.31055684       5.84374343      16.81127430  F
Ag      10.92803721       7.72882190      17.65430702  F
Ag       9.08104506       5.46672773      17.65430702  F
Ag      13.69852543       7.35180620      18.49733974  F
Ag      11.85153328       5.08971204      18.49733974  F
Ag       7.23405291       6.97479051      19.34037246  F
Ag       5.38706076       4.71269635      19.34037246  F
Ag      10.00454113       6.59777482      20.18340518  F
Ag      11.85153328       8.85986898      20.18340518  F
Ag      12.77502936       6.22075912      21.02643790  F
Ag      14.62202151       8.48285328      21.02643790  F
Ag       6.31055684       5.84374343      21.86947062  F
Ag       8.15754899       8.10583759      21.86947062  F
C        8.03183981       3.46727438      23.51133963  T
H        8.74773249       4.32441492      23.47618149  T
H        7.18868671       3.80268597      22.82715486  T
H        7.60852404       3.32252142      24.53225421  T
O        8.62491813       2.27777302      23.14189291  T
