45
Lattice="9.234961 0.0 0.0 7.387969 9.048377 0.0 0.0 0.0 37.587294" Properties=species:S:1:pos:R:3:move_mask:L:1 method=CHGNet energy=-132.97021484375 max_force=0.13174647092819214 pbc="T T T"
Ag       1.69307646       0.18850802      14.28217614  F
Ag       3.54006861       2.45060218      14.28217614  F
Ag       8.15754899       4.33568065      15.12520886  F
Ag       6.31055684       2.07358649      15.12520886  F
Ag      10.92803721       3.95866496      15.96824158  F
Ag       9.08104506       1.69657080      15.96824158  F
Ag       4.46356469       3.58164927      16.81127430  F
Ag       2.61657254       1.31955510      16.81127430  F
Ag       7.23405291       3.20463357      17.65430702  F
Ag       5.38706076       0.94253941      17.65430702  F
Ag      10.00454113       2.82761788      18.49733974  F
Ag       8.15754899       0.56552372      18.49733974  F
Ag       3.54006861       2.45060218      19.34037246  F
Ag       1.69307646       0.18850802      19.34037246  F
Ag       6.31055684       2.07358649      20.18340518  F
Ag       8.15754899       4.33568065      20.18340518  F
Ag       9.08104506       1.69657080      21.02643790  F
Ag      10.92803721       3.95866496      21.02643790  F
Ag       2.61657254       1.31955510      21.86947062  F
Ag       4.46356469       3.58164927      21.86947062  F
Ag       5.38706076       4.71269635      14.28217614  F
Ag       7.23405291       6.97479051      14.28217614  F
Ag      11.85153328       8.85986898      15.12520886  F
Ag      10.00454113       6.59777482      15.12520886  F
Ag      14.62202151       8.48285328      15.96824158  F
Ag      12.77502936       6.22075912      15.96824158  F
Ag       8.15754899       8.10583759      16.81127430  F
Ag       6.31055684       5.84374343      16.81127430  F
Ag      10.92803721       7.72882190      17.65430702  F
Ag       9.08104506       5.46672773      17.65430702  F
Ag      13.69852543       7.35180620      18.49733974  F
Ag      11.85153328       5.08971204      18.49733974  F
Ag       7.23405291       6.97479051      19.34037246  F
Ag       5.38706076       4.71269635      19.34037246  F
Ag      10.00454113       6.59777482      20.18340518  F
Ag      11.85153328       8.85986898      20.18340518  F
Ag      12.77502936       6.22075912      21.02643790  F
Ag      14.62202151       8.48285328      21.02643790  F
Ag       6.31055684       5.84374343      21.86947062  F
Ag       8.15754899       8.10583759      21.86947062  F
C        7.93379586       3.50739814      23.42596410  T
H        8.73436862       4.27942023      23.38858743  T
H        7.10445691       3.89052985      22.76468812  T
H        7.49149409       3.49676347      24.44725950  T
O        8.34589986       2.23854913      23.06986009  T
