53
Lattice="11.681404 0.0 0.0 0.0 8.26 0.0 0.0 0.0 37.300878" Properties=species:S:1:pos:R:3:move_mask:L:1 method=MACE-MP energy=-152.1079559326172 max_force=0.17289765179157257 pbc="T T T"
Ag      -0.00000001       1.48166447      13.82156612  F
Ag       4.38052650       3.54666447      15.28174163  F
Ag       1.46017549       3.54666447      15.28174163  F
Ag       2.92035099       1.48166447      13.82156612  F
Ag       2.92035099       1.48166447      16.74191713  F
Ag       1.46017549       3.54666447      18.20209263  F
Ag       4.38052650       3.54666447      18.20209263  F
Ag      -0.00000001       1.48166447      16.74191713  F
Ag       5.84070200       1.48166447      19.66226813  F
Ag       4.38052650       3.54666447      21.12244364  F
Ag       1.46017549       3.54666447      21.12244364  F
Ag       2.92035099       1.48166447      19.66226813  F
Ag      -0.00000001       5.61166447      13.82156612  F
Ag       4.38052650       7.67666447      15.28174163  F
Ag       1.46017549       7.67666447      15.28174163  F
Ag       2.92035099       5.61166447      13.82156612  F
Ag       2.92035099       5.61166447      16.74191713  F
Ag       1.46017549       7.67666447      18.20209263  F
Ag       4.38052650       7.67666447      18.20209263  F
Ag      -0.00000001       5.61166447      16.74191713  F
Ag       5.84070200       5.61166447      19.66226813  F
Ag       4.38052650       7.67666447      21.12244364  F
Ag       1.46017549       7.67666447      21.12244364  F
Ag       2.92035099       5.61166447      19.66226813  F
Ag       5.84070200       1.48166447      13.82156612  F
Ag      10.22122851       3.54666447      15.28174163  F
Ag       7.30087750       3.54666447      15.28174163  F
Ag       8.76105301       1.48166447      13.82156612  F
Ag       8.76105301       1.48166447      16.74191713  F
Ag       7.30087750       3.54666447      18.20209263  F
Ag      10.22122851       3.54666447      18.20209263  F
Ag       5.84070200       1.48166447      16.74191713  F
Ag      11.68140401       1.48166447      19.66226813  F
Ag      10.22122851       3.54666447      21.12244364  F
Ag       7.30087750       3.54666447      21.12244364  F
Ag       8.76105301       1.48166447      19.66226813  F
Ag       5.84070200       5.61166447      13.82156612  F
Ag      10.22122851       7.67666447      15.28174163  F
Ag       7.30087750       7.67666447      15.28174163  F
Ag       8.76105301       5.61166447      13.82156612  F
Ag       8.76105301       5.61166447      16.74191713  F
Ag       7.30087750       7.67666447      18.20209263  F
Ag      10.22122851       7.67666447      18.20209263  F
Ag       5.84070200       5.61166447      16.74191713  F
Ag      11.68140401       5.61166447      19.66226813  F
Ag      10.22122851       7.67666447      21.12244364  F
Ag       7.30087750       7.67666447      21.12244364  F
Ag       8.76105301       5.61166447      19.66226813  F
C        4.38150323       1.53093844      23.64995806  T
H        3.35884310       1.57304881      24.07048721  T
H        4.86454319       0.60261712      24.01237360  T
H        4.96198457       2.38832586      24.05054255  T
O        4.29370754       1.51961863      22.26160396  T
