45
Lattice="9.234961 0.0 0.0 7.387969 9.048377 0.0 0.0 0.0 37.587294" Properties=species:S:1:pos:R:3:move_mask:L:1 method=GFN1-xTB energy=-4450.920707955246 max_force=0.13610569558015786 pbc="T T T"
Ag       1.22868504       0.18850802      13.46982382  F
Ag       3.07567719       2.45060218      13.46982382  F
Ag       7.69315756       4.33568065      14.31285654  F
Ag       5.84616541       2.07358649      14.31285654  F
Ag      10.46364578       3.95866496      15.15588926  F
Ag       8.61665363       1.69657080      15.15588926  F
Ag       3.99917326       3.58164927      15.99892198  F
Ag       2.15218111       1.31955510      15.99892198  F
Ag       6.76966149       3.20463357      16.84195470  F
Ag       4.92266934       0.94253941      16.84195470  F
Ag       9.54014971       2.82761788      17.68498742  F
Ag       7.69315756       0.56552372      17.68498742  F
Ag       3.07567719       2.45060218      18.52802014  F
Ag       1.22868504       0.18850802      18.52802014  F
Ag       5.84616541       2.07358649      19.37105286  F
Ag       7.69315756       4.33568065      19.37105286  F
Ag       8.61665363       1.69657080      20.21408558  F
Ag      10.46364578       3.95866496      20.21408558  F
Ag       2.15218111       1.31955510      21.05711830  F
Ag       3.99917326       3.58164927      21.05711830  F
Ag       4.92266934       4.71269635      13.46982382  F
Ag       6.76966149       6.97479051      13.46982382  F
Ag      11.38714186       8.85986898      14.31285654  F
Ag       9.54014971       6.59777482      14.31285654  F
Ag      14.15763008       8.48285328      15.15588926  F
Ag      12.31063793       6.22075912      15.15588926  F
Ag       7.69315756       8.10583759      15.99892198  F
Ag       5.84616541       5.84374343      15.99892198  F
Ag      10.46364578       7.72882190      16.84195470  F
Ag       8.61665363       5.46672773      16.84195470  F
Ag      13.23413401       7.35180620      17.68498742  F
Ag      11.38714186       5.08971204      17.68498742  F
Ag       6.76966149       6.97479051      18.52802014  F
Ag       4.92266934       4.71269635      18.52802014  F
Ag       9.54014971       6.59777482      19.37105286  F
Ag      11.38714186       8.85986898      19.37105286  F
Ag      12.31063793       6.22075912      20.21408558  F
Ag      14.15763008       8.48285328      20.21408558  F
Ag       5.84616541       5.84374343      21.05711830  F
Ag       7.69315756       8.10583759      21.05711830  F
C        9.40334595       2.97265341      23.29732637  T
H        8.49646899       3.17736129      23.88581537  T
H        9.73817882       1.94636771      23.51925851  T
H       10.19860279       3.64239745      23.65893065  T
O        9.15271958       3.15684499      21.94159994  T
