53
Lattice="11.681404 0.0 0.0 0.0 8.26 0.0 0.0 0.0 37.300878" Properties=species:S:1:pos:R:3:move_mask:L:1 method=CHGNet energy=-154.45437622070312 max_force=0.11915488541126251 pbc="T T T"
Ag      -0.00000001       1.03250000      13.54852560  F
Ag       4.38052650       3.09750000      15.00870110  F
Ag       1.46017549       3.09750000      15.00870110  F
Ag       2.92035099       1.03250000      13.54852560  F
Ag       2.92035099       1.03250000      16.46887660  F
Ag       1.46017549       3.09750000      17.92905211  F
Ag       4.38052650       3.09750000      17.92905211  F
Ag      -0.00000001       1.03250000      16.46887660  F
Ag       5.84070200       1.03250000      19.38922761  F
Ag       4.38052650       3.09750000      20.84940311  F
Ag       1.46017549       3.09750000      20.84940311  F
Ag       2.92035099       1.03250000      19.38922761  F
Ag      -0.00000001       5.16250000      13.54852560  F
Ag       4.38052650       7.22750000      15.00870110  F
Ag       1.46017549       7.22750000      15.00870110  F
Ag       2.92035099       5.16250000      13.54852560  F
Ag       2.92035099       5.16250000      16.46887660  F
Ag       1.46017549       7.22750000      17.92905211  F
Ag       4.38052650       7.22750000      17.92905211  F
Ag      -0.00000001       5.16250000      16.46887660  F
Ag       5.84070200       5.16250000      19.38922761  F
Ag       4.38052650       7.22750000      20.84940311  F
Ag       1.46017549       7.22750000      20.84940311  F
Ag       2.92035099       5.16250000      19.38922761  F
Ag       5.84070200       1.03250000      13.54852560  F
Ag      10.22122851       3.09750000      15.00870110  F
Ag       7.30087750       3.09750000      15.00870110  F
Ag       8.76105301       1.03250000      13.54852560  F
Ag       8.76105301       1.03250000      16.46887660  F
Ag       7.30087750       3.09750000      17.92905211  F
Ag      10.22122851       3.09750000      17.92905211  F
Ag       5.84070200       1.03250000      16.46887660  F
Ag      11.68140401       1.03250000      19.38922761  F
Ag      10.22122851       3.09750000      20.84940311  F
Ag       7.30087750       3.09750000      20.84940311  F
Ag       8.76105301       1.03250000      19.38922761  F
Ag       5.84070200       5.16250000      13.54852560  F
Ag      10.22122851       7.22750000      15.00870110  F
Ag       7.30087750       7.22750000      15.00870110  F
Ag       8.76105301       5.16250000      13.54852560  F
Ag       8.76105301       5.16250000      16.46887660  F
Ag       7.30087750       7.22750000      17.92905211  F
Ag      10.22122851       7.22750000      17.92905211  F
Ag       5.84070200       5.16250000      16.46887660  F
Ag      11.68140401       5.16250000      19.38922761  F
Ag      10.22122851       7.22750000      20.84940311  F
Ag       7.30087750       7.22750000      20.84940311  F
Ag       8.76105301       5.16250000      19.38922761  F
C        2.89475970       1.49319297      23.19264532  T
H        1.86633995       1.18819010      23.47190690  T
H        3.32609603       0.66932491      22.58672977  T
H        3.50429575       1.55478589      24.11274066  T
O        2.91636859       2.73788642      22.52405084  T
