53
Lattice="11.681404 0.0 0.0 0.0 8.26 0.0 0.0 0.0 37.300878" Properties=species:S:1:pos:R:3:move_mask:L:1 method=CHGNet energy=-153.77554321289062 max_force=0.14476683735847473 pbc="T T T"
Ag      -0.00000001       1.03250000      14.27861335  F
Ag       4.38052650       3.09750000      15.73878885  F
Ag       1.46017549       3.09750000      15.73878885  F
Ag       2.92035099       1.03250000      14.27861335  F
Ag       2.92035099       1.03250000      17.19896435  F
Ag       1.46017549       3.09750000      18.65913986  F
Ag       4.38052650       3.09750000      18.65913986  F
Ag      -0.00000001       1.03250000      17.19896435  F
Ag       5.84070200       1.03250000      20.11931536  F
Ag       4.38052650       3.09750000      21.57949086  F
Ag       1.46017549       3.09750000      21.57949086  F
Ag       2.92035099       1.03250000      20.11931536  F
Ag      -0.00000001       5.16250000      14.27861335  F
Ag       4.38052650       7.22750000      15.73878885  F
Ag       1.46017549       7.22750000      15.73878885  F
Ag       2.92035099       5.16250000      14.27861335  F
Ag       2.92035099       5.16250000      17.19896435  F
Ag       1.46017549       7.22750000      18.65913986  F
Ag       4.38052650       7.22750000      18.65913986  F
Ag      -0.00000001       5.16250000      17.19896435  F
Ag       5.84070200       5.16250000      20.11931536  F
Ag       4.38052650       7.22750000      21.57949086  F
Ag       1.46017549       7.22750000      21.57949086  F
Ag       2.92035099       5.16250000      20.11931536  F
Ag       5.84070200       1.03250000      14.27861335  F
Ag      10.22122851       3.09750000      15.73878885  F
Ag       7.30087750       3.09750000      15.73878885  F
Ag       8.76105301       1.03250000      14.27861335  F
Ag       8.76105301       1.03250000      17.19896435  F
Ag       7.30087750       3.09750000      18.65913986  F
Ag      10.22122851       3.09750000      18.65913986  F
Ag       5.84070200       1.03250000      17.19896435  F
Ag      11.68140401       1.03250000      20.11931536  F
Ag      10.22122851       3.09750000      21.57949086  F
Ag       7.30087750       3.09750000      21.57949086  F
Ag       8.76105301       1.03250000      20.11931536  F
Ag       5.84070200       5.16250000      14.27861335  F
Ag      10.22122851       7.22750000      15.73878885  F
Ag       7.30087750       7.22750000      15.73878885  F
Ag       8.76105301       5.16250000      14.27861335  F
Ag       8.76105301       5.16250000      17.19896435  F
Ag       7.30087750       7.22750000      18.65913986  F
Ag      10.22122851       7.22750000      18.65913986  F
Ag       5.84070200       5.16250000      17.19896435  F
Ag      11.68140401       5.16250000      20.11931536  F
Ag      10.22122851       7.22750000      21.57949086  F
Ag       7.30087750       7.22750000      21.57949086  F
Ag       8.76105301       5.16250000      20.11931536  F
C        4.72833092       1.71969217      23.75910273  T
H        5.81579916       1.94950199      23.65481531  T
H        2.92069338       3.03149593      20.27905184  T
H        4.06643172       2.49853347      24.20152131  T
O        4.28102659       0.57823063      23.51177856  T
