53
Lattice="11.681404 0.0 0.0 0.0 8.26 0.0 0.0 0.0 37.300878" Properties=species:S:1:pos:R:3:move_mask:L:1 method=CHGNet energy=-152.25283813476562 max_force=0.22100330889225006 pbc="T T T"
Ag      -0.00000001       1.94102187      14.27861335  F
Ag       4.38052650       4.00602187      15.73878885  F
Ag       1.46017549       4.00602187      15.73878885  F
Ag       2.92035099       1.94102187      14.27861335  F
Ag       2.92035099       1.94102187      17.19896435  F
Ag       1.46017549       4.00602187      18.65913986  F
Ag       4.38052650       4.00602187      18.65913986  F
Ag      -0.00000001       1.94102187      17.19896435  F
Ag       5.84070200       1.94102187      20.11931536  F
Ag       4.38052650       4.00602187      21.57949086  F
Ag       1.46017549       4.00602187      21.57949086  F
Ag       2.92035099       1.94102187      20.11931536  F
Ag      -0.00000001       6.07102187      14.27861335  F
Ag       4.38052650       8.13602187      15.73878885  F
Ag       1.46017549       8.13602187      15.73878885  F
Ag       2.92035099       6.07102187      14.27861335  F
Ag       2.92035099       6.07102187      17.19896435  F
Ag       1.46017549       8.13602187      18.65913986  F
Ag       4.38052650       8.13602187      18.65913986  F
Ag      -0.00000001       6.07102187      17.19896435  F
Ag       5.84070200       6.07102187      20.11931536  F
Ag       4.38052650       8.13602187      21.57949086  F
Ag       1.46017549       8.13602187      21.57949086  F
Ag       2.92035099       6.07102187      20.11931536  F
Ag       5.84070200       1.94102187      14.27861335  F
Ag      10.22122851       4.00602187      15.73878885  F
Ag       7.30087750       4.00602187      15.73878885  F
Ag       8.76105301       1.94102187      14.27861335  F
Ag       8.76105301       1.94102187      17.19896435  F
Ag       7.30087750       4.00602187      18.65913986  F
Ag      10.22122851       4.00602187      18.65913986  F
Ag       5.84070200       1.94102187      17.19896435  F
Ag      11.68140401       1.94102187      20.11931536  F
Ag      10.22122851       4.00602187      21.57949086  F
Ag       7.30087750       4.00602187      21.57949086  F
Ag       8.76105301       1.94102187      20.11931536  F
Ag       5.84070200       6.07102187      14.27861335  F
Ag      10.22122851       8.13602187      15.73878885  F
Ag       7.30087750       8.13602187      15.73878885  F
Ag       8.76105301       6.07102187      14.27861335  F
Ag       8.76105301       6.07102187      17.19896435  F
Ag       7.30087750       8.13602187      18.65913986  F
Ag      10.22122851       8.13602187      18.65913986  F
Ag       5.84070200       6.07102187      17.19896435  F
Ag      11.68140401       6.07102187      20.11931536  F
Ag      10.22122851       8.13602187      21.57949086  F
Ag       7.30087750       8.13602187      21.57949086  F
Ag       8.76105301       6.07102187      20.11931536  F
C        4.27043994       0.08915905      23.54088210  T
H        3.21628898       1.70114457      23.85606133  T
H        4.43621942       0.06547992      21.61012172  T
H        5.23902798      -0.44088790      23.97492136  T
O        4.06788954       1.28284551      24.11884120  T
