45
Lattice="9.234961 0.0 0.0 7.387969 9.048377 0.0 0.0 0.0 37.587294" Properties=species:S:1:pos:R:3:move_mask:L:1 method=CHGNet energy=-133.1213836669922 max_force=0.17927736043930054 pbc="T T T"
Ag       1.06850635       0.18850802      13.81333219  F
Ag       2.91549849       2.45060218      13.81333219  F
Ag       7.53297887       4.33568065      14.65636491  F
Ag       5.68598672       2.07358649      14.65636491  F
Ag      10.30346709       3.95866496      15.49939763  F
Ag       8.45647494       1.69657080      15.49939763  F
Ag       3.83899457       3.58164927      16.34243035  F
Ag       1.99200242       1.31955510      16.34243035  F
Ag       6.60948279       3.20463357      17.18546307  F
Ag       4.76249064       0.94253941      17.18546307  F
Ag       9.37997102       2.82761788      18.02849579  F
Ag       7.53297887       0.56552372      18.02849579  F
Ag       2.91549849       2.45060218      18.87152851  F
Ag       1.06850635       0.18850802      18.87152851  F
Ag       5.68598672       2.07358649      19.71456123  F
Ag       7.53297887       4.33568065      19.71456123  F
Ag       8.45647494       1.69657080      20.55759395  F
Ag      10.30346709       3.95866496      20.55759395  F
Ag       1.99200242       1.31955510      21.40062667  F
Ag       3.83899457       3.58164927      21.40062667  F
Ag       4.76249064       4.71269635      13.81333219  F
Ag       6.60948279       6.97479051      13.81333219  F
Ag      11.22696317       8.85986898      14.65636491  F
Ag       9.37997102       6.59777482      14.65636491  F
Ag      13.99745139       8.48285328      15.49939763  F
Ag      12.15045924       6.22075912      15.49939763  F
Ag       7.53297887       8.10583759      16.34243035  F
Ag       5.68598672       5.84374343      16.34243035  F
Ag      10.30346709       7.72882190      17.18546307  F
Ag       8.45647494       5.46672773      17.18546307  F
Ag      13.07395532       7.35180620      18.02849579  F
Ag      11.22696317       5.08971204      18.02849579  F
Ag       6.60948279       6.97479051      18.87152851  F
Ag       4.76249064       4.71269635      18.87152851  F
Ag       9.37997102       6.59777482      19.71456123  F
Ag      11.22696317       8.85986898      19.71456123  F
Ag      12.15045924       6.22075912      20.55759395  F
Ag      13.99745139       8.48285328      20.55759395  F
Ag       5.68598672       5.84374343      21.40062667  F
Ag       7.53297887       8.10583759      21.40062667  F
C        8.39995667       2.20511834      23.46053460  T
H        9.05020100       1.29553554      23.47201405  T
H        8.63312440       2.79157477      24.37363425  T
H        7.33355367       1.88731072      23.51657063  T
O        8.59639214       3.03136112      22.34042536  T
