45
Lattice="9.234961 0.0 0.0 7.387969 9.048377 0.0 0.0 0.0 37.587294" Properties=species:S:1:pos:R:3:move_mask:L:1 method=GFN1-xTB energy=-4451.144618152652 max_force=0.1957155078323958 pbc="T T T"
Ag       1.55284481       0.19389483      14.32858747  F
Ag       3.39983696       2.45598899      14.32858747  F
Ag       8.01731733       4.34106746      15.17162019  F
Ag       6.17032518       2.07897330      15.17162019  F
Ag      10.78780556       3.96405177      16.01465291  F
Ag       8.94081341       1.70195760      16.01465291  F
Ag       4.32333303       3.58703607      16.85768563  F
Ag       2.47634088       1.32494191      16.85768563  F
Ag       7.09382126       3.21002038      17.70071835  F
Ag       5.24682911       0.94792622      17.70071835  F
Ag       9.86430948       2.83300469      18.54375107  F
Ag       8.01731733       0.57091052      18.54375107  F
Ag       3.39983696       2.45598899      19.38678379  F
Ag       1.55284481       0.19389483      19.38678379  F
Ag       6.17032518       2.07897330      20.22981651  F
Ag       8.01731733       4.34106746      20.22981651  F
Ag       8.94081341       1.70195760      21.07284923  F
Ag      10.78780556       3.96405177      21.07284923  F
Ag       2.47634088       1.32494191      21.91588194  F
Ag       4.32333303       3.58703607      21.91588194  F
Ag       5.24682911       4.71808315      14.32858747  F
Ag       7.09382126       6.98017732      14.32858747  F
Ag      11.71130163       8.86525579      15.17162019  F
Ag       9.86430948       6.60316162      15.17162019  F
Ag      14.48178986       8.48824009      16.01465291  F
Ag      12.63479771       6.22614593      16.01465291  F
Ag       8.01731733       8.11122440      16.85768563  F
Ag       6.17032518       5.84913024      16.85768563  F
Ag      10.78780556       7.73420870      17.70071835  F
Ag       8.94081341       5.47211454      17.70071835  F
Ag      13.55829378       7.35719301      18.54375107  F
Ag      11.71130163       5.09509885      18.54375107  F
Ag       7.09382126       6.98017732      19.38678379  F
Ag       5.24682911       4.71808315      19.38678379  F
Ag       9.86430948       6.60316162      20.22981651  F
Ag      11.71130163       8.86525579      20.22981651  F
Ag      12.63479771       6.22614593      21.07284923  F
Ag      14.48178986       8.48824009      21.07284923  F
Ag       6.17032518       5.84913024      21.91588194  F
Ag       8.01731733       8.11122440      21.91588194  F
C        6.78580814       1.50258237      23.81894968  T
H        5.75000132       1.21957891      24.05759367  T
H        7.45706378       0.86941756      24.42337769  T
H        6.92536423       2.54957144      24.12040835  T
O        7.03770607       1.34878625      22.45401073  T
