45
Lattice="9.234961 0.0 0.0 7.387969 9.048377 0.0 0.0 0.0 37.587294" Properties=species:S:1:pos:R:3:move_mask:L:1 method=MACE-MP energy=-129.96755981445312 max_force=0.17906473577022552 pbc="T T T"
Ag       1.69307646       0.18850802      14.39155783  F
Ag       3.54006861       2.45060218      14.39155783  F
Ag       8.15754899       4.33568065      15.23459055  F
Ag       6.31055684       2.07358649      15.23459055  F
Ag      10.92803721       3.95866496      16.07762327  F
Ag       9.08104506       1.69657080      16.07762327  F
Ag       4.46356469       3.58164927      16.92065599  F
Ag       2.61657254       1.31955510      16.92065599  F
Ag       7.23405291       3.20463357      17.76368871  F
Ag       5.38706076       0.94253941      17.76368871  F
Ag      10.00454113       2.82761788      18.60672143  F
Ag       8.15754899       0.56552372      18.60672143  F
Ag       3.54006861       2.45060218      19.44975415  F
Ag       1.69307646       0.18850802      19.44975415  F
Ag       6.31055684       2.07358649      20.29278687  F
Ag       8.15754899       4.33568065      20.29278687  F
Ag       9.08104506       1.69657080      21.13581959  F
Ag      10.92803721       3.95866496      21.13581959  F
Ag       2.61657254       1.31955510      21.97885231  F
Ag       4.46356469       3.58164927      21.97885231  F
Ag       5.38706076       4.71269635      14.39155783  F
Ag       7.23405291       6.97479051      14.39155783  F
Ag      11.85153328       8.85986898      15.23459055  F
Ag      10.00454113       6.59777482      15.23459055  F
Ag      14.62202151       8.48285328      16.07762327  F
Ag      12.77502936       6.22075912      16.07762327  F
Ag       8.15754899       8.10583759      16.92065599  F
Ag       6.31055684       5.84374343      16.92065599  F
Ag      10.92803721       7.72882190      17.76368871  F
Ag       9.08104506       5.46672773      17.76368871  F
Ag      13.69852543       7.35180620      18.60672143  F
Ag      11.85153328       5.08971204      18.60672143  F
Ag       7.23405291       6.97479051      19.44975415  F
Ag       5.38706076       4.71269635      19.44975415  F
Ag      10.00454113       6.59777482      20.29278687  F
Ag      11.85153328       8.85986898      20.29278687  F
Ag      12.77502936       6.22075912      21.13581959  F
Ag      14.62202151       8.48285328      21.13581959  F
Ag       6.31055684       5.84374343      21.97885231  F
Ag       8.15754899       8.10583759      21.97885231  F
C        7.32016562       2.93521927      23.97630231  T
H        8.23044486       3.54476808      23.75371264  T
H        6.24132477       4.06553851      21.35647424  T
H        6.48173772       3.48311030      24.45960597  T
O        7.25855342       1.73724793      23.73350110  T
