45
Lattice="9.234961 0.0 0.0 7.387969 9.048377 0.0 0.0 0.0 37.587294" Properties=species:S:1:pos:R:3:move_mask:L:1 method=GFN1-xTB energy=-4451.144463719693 max_force=0.16455507305554548 pbc="T T T"
Ag       1.74314804       0.24983293      13.83341650  F
Ag       3.59014019       2.51192709      13.83341650  F
Ag       8.20762056       4.39700556      14.67644922  F
Ag       6.36062841       2.13491140      14.67644922  F
Ag      10.97810879       4.01998987      15.51948194  F
Ag       9.13111664       1.75789570      15.51948194  F
Ag       4.51363626       3.64297417      16.36251466  F
Ag       2.66664411       1.38088001      16.36251466  F
Ag       7.28412449       3.26595848      17.20554738  F
Ag       5.43713234       1.00386432      17.20554738  F
Ag      10.05461271       2.88894278      18.04858010  F
Ag       8.20762056       0.62684862      18.04858010  F
Ag       3.59014019       2.51192709      18.89161282  F
Ag       1.74314804       0.24983293      18.89161282  F
Ag       6.36062841       2.13491140      19.73464554  F
Ag       8.20762056       4.39700556      19.73464554  F
Ag       9.13111664       1.75789570      20.57767826  F
Ag      10.97810879       4.01998987      20.57767826  F
Ag       2.66664411       1.38088001      21.42071098  F
Ag       4.51363626       3.64297417      21.42071098  F
Ag       5.43713234       4.77402125      13.83341650  F
Ag       7.28412449       7.03611542      13.83341650  F
Ag      11.90160486       8.92119388      14.67644922  F
Ag      10.05461271       6.65909972      14.67644922  F
Ag      14.67209309       8.54417819      15.51948194  F
Ag      12.82510094       6.28208403      15.51948194  F
Ag       8.20762056       8.16716250      16.36251466  F
Ag       6.36062841       5.90506833      16.36251466  F
Ag      10.97810879       7.79014680      17.20554738  F
Ag       9.13111664       5.52805264      17.20554738  F
Ag      13.74859701       7.41313111      18.04858010  F
Ag      11.90160486       5.15103695      18.04858010  F
Ag       7.28412449       7.03611542      18.89161282  F
Ag       5.43713234       4.77402125      18.89161282  F
Ag      10.05461271       6.65909972      19.73464554  F
Ag      11.90160486       8.92119388      19.73464554  F
Ag      12.82510094       6.28208403      20.57767826  F
Ag      14.67209309       8.54417819      20.57767826  F
Ag       6.36062841       5.90506833      21.42071098  F
Ag       8.20762056       8.16716250      21.42071098  F
C        5.34258152       0.75870241      23.19751681  T
H        6.11102769       1.36322355      23.70305309  T
H        4.42648856       0.79765409      23.80298901  T
H        5.69095175      -0.28722919      23.19184207  T
O        5.08523544       1.23825128      21.90319697  T
