53
Lattice="11.681404 0.0 0.0 0.0 8.26 0.0 0.0 0.0 37.300878" Properties=species:S:1:pos:R:3:move_mask:L:1 method=MACE-MP energy=-152.08302307128906 max_force=0.06726569682359695 pbc="T T T"
Ag      -0.00000001       1.03250000      13.09147837  F
Ag       4.38052650       3.09750000      14.55165387  F
Ag       1.46017549       3.09750000      14.55165387  F
Ag       2.92035099       1.03250000      13.09147837  F
Ag       2.92035099       1.03250000      16.01182938  F
Ag       1.46017549       3.09750000      17.47200488  F
Ag       4.38052650       3.09750000      17.47200488  F
Ag      -0.00000001       1.03250000      16.01182938  F
Ag       5.84070200       1.03250000      18.93218038  F
Ag       4.38052650       3.09750000      20.39235589  F
Ag       1.46017549       3.09750000      20.39235589  F
Ag       2.92035099       1.03250000      18.93218038  F
Ag      -0.00000001       5.16250000      13.09147837  F
Ag       4.38052650       7.22750000      14.55165387  F
Ag       1.46017549       7.22750000      14.55165387  F
Ag       2.92035099       5.16250000      13.09147837  F
Ag       2.92035099       5.16250000      16.01182938  F
Ag       1.46017549       7.22750000      17.47200488  F
Ag       4.38052650       7.22750000      17.47200488  F
Ag      -0.00000001       5.16250000      16.01182938  F
Ag       5.84070200       5.16250000      18.93218038  F
Ag       4.38052650       7.22750000      20.39235589  F
Ag       1.46017549       7.22750000      20.39235589  F
Ag       2.92035099       5.16250000      18.93218038  F
Ag       5.84070200       1.03250000      13.09147837  F
Ag      10.22122851       3.09750000      14.55165387  F
Ag       7.30087750       3.09750000      14.55165387  F
Ag       8.76105301       1.03250000      13.09147837  F
Ag       8.76105301       1.03250000      16.01182938  F
Ag       7.30087750       3.09750000      17.47200488  F
Ag      10.22122851       3.09750000      17.47200488  F
Ag       5.84070200       1.03250000      16.01182938  F
Ag      11.68140401       1.03250000      18.93218038  F
Ag      10.22122851       3.09750000      20.39235589  F
Ag       7.30087750       3.09750000      20.39235589  F
Ag       8.76105301       1.03250000      18.93218038  F
Ag       5.84070200       5.16250000      13.09147837  F
Ag      10.22122851       7.22750000      14.55165387  F
Ag       7.30087750       7.22750000      14.55165387  F
Ag       8.76105301       5.16250000      13.09147837  F
Ag       8.76105301       5.16250000      16.01182938  F
Ag       7.30087750       7.22750000      17.47200488  F
Ag      10.22122851       7.22750000      17.47200488  F
Ag       5.84070200       5.16250000      16.01182938  F
Ag      11.68140401       5.16250000      18.93218038  F
Ag      10.22122851       7.22750000      20.39235589  F
Ag       7.30087750       7.22750000      20.39235589  F
Ag       8.76105301       5.16250000      18.93218038  F
C        2.91511511       3.07077873      23.48259730  T
H        3.94831881       2.99321434      23.86662607  T
H        2.44615326       3.99062387      23.87403401  T
H        2.35093249       2.19441430      23.84669319  T
O        2.90964846       3.13724484      22.08815732  T
